LAMMPS Description

5312 atoms
99 bonds
98 angles
0 dihedrals
0 impropers

2 atom types
1 bond types
1 angle types
0 dihedral types
0 improper types

-30 30 xlo xhi
-30 30 ylo yhi
-10 110 zlo zhi

Masses

1 1.0
2 1.0

Atoms

1 1 1 -15.152 -1.93555 -0.857123 21.9117 
2 1 1 -15.152 -1.85862 -1.3503 21.7821 
3 1 1 -15.152 -1.96656 -1.82276 21.713 
4 1 1 -15.152 -2.18651 -1.8067 21.2705 
5 1 1 -15.152 -2.14849 -2.11549 20.8718 
6 1 1 -15.152 -1.73629 -2.36847 20.97 
7 1 1 -15.152 -1.35076 -2.67612 20.978 
8 1 1 -15.152 -1.27064 -2.91962 21.4015 
9 1 1 -15.152 -1.11484 -2.63957 21.7736 
10 1 1 -15.152 -0.919416 -2.18308 21.7169 
11 1 1 -15.152 -0.804696 -1.82894 21.3814 
12 1 1 -15.152 -1.01381 -1.45412 21.1312 
13 1 1 -15.152 -0.924256 -1.1445 20.7633 
14 1 1 -15.152 -0.713206 -0.955817 20.3676 
15 1 1 -15.152 -0.436506 -0.661771 20.0889 
16 1 1 -15.152 -0.426166 -0.636198 19.5789 
17 1 1 -15.152 -0.408276 -1.00193 19.2482 
18 1 1 -15.152 -0.342726 -1.36713 18.9232 
19 1 1 -15.152 -0.835116 -1.31945 18.8237 
20 1 1 -15.152 -1.09794 -1.71344 18.6625 
21 1 1 -15.152 -1.28184 -1.64021 19.1333 
22 1 1 -15.152 -1.32407 -1.90951 19.5359 
23 1 1 -15.152 -1.59451 -2.32511 19.4753 
24 1 1 -15.152 -1.29866 -2.70182 19.3247 
25 1 1 -15.152 -1.39613 -3.1849 19.1653 
26 1 1 -15.152 -1.27868 -3.65559 19.3197 
27 1 1 -15.152 -0.983346 -3.74709 18.9018 
28 1 1 -15.152 -0.646276 -4.06994 18.7269 
29 1 1 -15.152 -0.199706 -3.91378 18.8546 
30 1 1 -15.152 -0.119376 -4.37486 18.6866 
31 1 1 -15.152 0.337614 -4.20194 18.5998 
32 1 1 -15.152 0.80662 -4.08093 18.7381 
33 1 1 -15.152 1.01155 -3.8017 19.0883 
34 1 1 -15.152 1.15176 -3.35417 18.9287 
35 1 1 -15.152 1.28996 -3.14175 18.4789 
36 1 1 -15.152 1.58569 -3.4708 18.219 
37 1 1 -15.152 1.79771 -3.4463 17.7548 
38 1 1 -15.152 2.13862 -3.64939 18.026 
39 1 1 -15.152 2.62237 -3.57059 17.9387 
40 1 1 -15.152 2.92793 -3.63204 18.323 
41 1 1 -15.152 3.26354 -3.6396 18.7084 
42 1 1 -15.152 2.97481 -3.89771 19.0418 
43 1 1 -15.152 2.68409 -4.03193 19.4179 
44 1 1 -15.152 2.64568 -3.67079 19.7642 
45 1 1 -15.152 2.15246 -3.71632 19.7764 
46 1 1 -15.152 1.91576 -3.31295 19.9272 
47 1 1 -15.152 1.85537 -2.81545 19.9641 
48 1 1 -15.152 2.07631 -2.5451 19.5903 
49 1 1 -15.152 2.37697 -2.39103 19.9117 
50 1 1 -15.152 2.43854 -1.9518 19.6703 
51 1 1 -15.152 2.61823 -1.53718 19.8767 
52 1 1 -15.152 2.96721 -1.43426 20.2094 
53 1 1 -15.152 2.59797 -1.18865 20.4415 
54 1 1 -15.152 2.35954 -0.751041 20.4921 
55 1 1 -15.152 2.05122 -0.506283 20.8032 
56 1 1 -15.152 1.54496 -0.556442 20.8178 
57 1 1 -15.152 1.18244 -0.306811 20.5637 
58 1 1 -15.152 1.32342 -0.548241 20.1625 
59 1 1 -15.152 1.22509 -0.622697 19.6864 
60 1 1 -15.152 1.10003 -1.08158 19.5502 
61 1 1 -15.152 1.32975 -1.50492 19.7077 
62 1 1 -15.152 1.32733 -1.70113 20.1718 
63 1 1 -15.152 1.43168 -1.6518 20.6627 
64 1 1 -15.152 1.77282 -1.9839 20.7937 
65 1 1 -15.152 2.24923 -1.99368 20.9717 
66 1 1 -15.152 2.71619 -2.19581 20.9568 
67 1 1 -15.152 3.06701 -2.14104 21.3209 
68 1 1 -15.152 3.30344 -2.11196 20.9003 
69 1 1 -15.152 3.67312 -2.02872 20.5819 
70 1 1 -15.152 4.10941 -1.79926 20.6302 
71 1 1 -15.152 3.985 -1.54709 20.2173 
72 1 1 -15.152 4.33822 -1.21541 20.0478 
73 1 1 -15.152 4.81433 -1.30259 20.1568 
74 1 1 -15.152 5.1232 -0.910172 20.1649 
75 1 1 -15.152 5.05475 -0.490796 20.4393 
76 1 1 -15.152 4.65439 -0.227474 20.3052 
77 1 1 -15.152 4.29979 -0.310734 20.6409 
78 1 1 -15.152 3.82094 -0.44913 20.7138 
79 1 1 -15.152 3.37746 -0.235634 20.6929 
80 1 1 -15.152 3.31805 0.247466 20.719 
81 1 1 -15.152 3.40721 0.638856 20.437 
82 1 1 -15.152 3.70003 0.911996 20.1415 
83 1 1 -15.152 4.01446 1.2356 19.9288 
84 1 1 -15.152 4.33142 1.4096 19.5845 
85 1 1 -15.152 4.65653 1.75144 19.7747 
86 1 1 -15.152 4.53835 2.23514 19.7718 
87 1 1 -15.152 4.58379 2.67584 20.0071 
88 1 1 -15.152 4.54531 2.62993 20.4886 
89 1 1 -15.152 4.06826 2.62639 20.6283 
90 1 1 -15.152 3.68245 2.39187 20.4022 
91 1 1 -15.152 3.33166 2.45616 20.749 
92 1 1 -15.152 2.99687 2.1356 20.5857 
93 1 1 -15.152 2.59739 2.07635 20.8604 
94 1 1 -15.152 2.29813 1.79448 20.5825 
95 1 1 -15.152 1.93492 2.06316 20.4014 
96 1 1 -15.152 1.90273 2.4413 20.0753 
97 1 1 -15.152 2.11799 2.37672 19.5993 
98 1 1 -15.152 2.59865 2.48193 19.5191 
99 1 1 -15.152 3.09564 2.56574 19.4588 
100 1 1 -15.152 3.21577 2.13027 19.2556 
101 2 2 0 -30 -30 20 
102 2 2 0 -29 -30 20 
103 2 2 0 -28 -30 20 
104 2 2 0 -27 -30 20 
105 2 2 0 -26 -30 20 
106 2 2 0 -25 -30 20 
107 2 2 0 -24 -30 20 
108 2 2 0 -23 -30 20 
109 2 2 0 -22 -30 20 
110 2 2 0 -21 -30 20 
111 2 2 0 -20 -30 20 
112 2 2 0 -19 -30 20 
113 2 2 0 -18 -30 20 
114 2 2 0 -17 -30 20 
115 2 2 0 -16 -30 20 
116 2 2 0 -15 -30 20 
117 2 2 0 -14 -30 20 
118 2 2 0 -13 -30 20 
119 2 2 0 -12 -30 20 
120 2 2 0 -11 -30 20 
121 2 2 0 -10 -30 20 
122 2 2 0 -9 -30 20 
123 2 2 0 -8 -30 20 
124 2 2 0 -7 -30 20 
125 2 2 0 -6 -30 20 
126 2 2 0 -5 -30 20 
127 2 2 0 -4 -30 20 
128 2 2 0 -3 -30 20 
129 2 2 0 -2 -30 20 
130 2 2 0 -1 -30 20 
131 2 2 0 0 -30 20 
132 2 2 0 1 -30 20 
133 2 2 0 2 -30 20 
134 2 2 0 3 -30 20 
135 2 2 0 4 -30 20 
136 2 2 0 5 -30 20 
137 2 2 0 6 -30 20 
138 2 2 0 7 -30 20 
139 2 2 0 8 -30 20 
140 2 2 0 9 -30 20 
141 2 2 0 10 -30 20 
142 2 2 0 11 -30 20 
143 2 2 0 12 -30 20 
144 2 2 0 13 -30 20 
145 2 2 0 14 -30 20 
146 2 2 0 15 -30 20 
147 2 2 0 16 -30 20 
148 2 2 0 17 -30 20 
149 2 2 0 18 -30 20 
150 2 2 0 19 -30 20 
151 2 2 0 20 -30 20 
152 2 2 0 21 -30 20 
153 2 2 0 22 -30 20 
154 2 2 0 23 -30 20 
155 2 2 0 24 -30 20 
156 2 2 0 25 -30 20 
157 2 2 0 26 -30 20 
158 2 2 0 27 -30 20 
159 2 2 0 28 -30 20 
160 2 2 0 29 -30 20 
161 2 2 0 30 -30 20 
162 2 2 0 -30 -29 20 
163 2 2 0 -29 -29 20 
164 2 2 0 -28 -29 20 
165 2 2 0 -27 -29 20 
166 2 2 0 -26 -29 20 
167 2 2 0 -25 -29 20 
168 2 2 0 -24 -29 20 
169 2 2 0 -23 -29 20 
170 2 2 0 -22 -29 20 
171 2 2 0 -21 -29 20 
172 2 2 0 -20 -29 20 
173 2 2 0 -19 -29 20 
174 2 2 0 -18 -29 20 
175 2 2 0 -17 -29 20 
176 2 2 0 -16 -29 20 
177 2 2 0 -15 -29 20 
178 2 2 0 -14 -29 20 
179 2 2 0 -13 -29 20 
180 2 2 0 -12 -29 20 
181 2 2 0 -11 -29 20 
182 2 2 0 -10 -29 20 
183 2 2 0 -9 -29 20 
184 2 2 0 -8 -29 20 
185 2 2 0 -7 -29 20 
186 2 2 0 -6 -29 20 
187 2 2 0 -5 -29 20 
188 2 2 0 -4 -29 20 
189 2 2 0 -3 -29 20 
190 2 2 0 -2 -29 20 
191 2 2 0 -1 -29 20 
192 2 2 0 0 -29 20 
193 2 2 0 1 -29 20 
194 2 2 0 2 -29 20 
195 2 2 0 3 -29 20 
196 2 2 0 4 -29 20 
197 2 2 0 5 -29 20 
198 2 2 0 6 -29 20 
199 2 2 0 7 -29 20 
200 2 2 0 8 -29 20 
201 2 2 0 9 -29 20 
202 2 2 0 10 -29 20 
203 2 2 0 11 -29 20 
204 2 2 0 12 -29 20 
205 2 2 0 13 -29 20 
206 2 2 0 14 -29 20 
207 2 2 0 15 -29 20 
208 2 2 0 16 -29 20 
209 2 2 0 17 -29 20 
210 2 2 0 18 -29 20 
211 2 2 0 19 -29 20 
212 2 2 0 20 -29 20 
213 2 2 0 21 -29 20 
214 2 2 0 22 -29 20 
215 2 2 0 23 -29 20 
216 2 2 0 24 -29 20 
217 2 2 0 25 -29 20 
218 2 2 0 26 -29 20 
219 2 2 0 27 -29 20 
220 2 2 0 28 -29 20 
221 2 2 0 29 -29 20 
222 2 2 0 30 -29 20 
223 2 2 0 -30 -28 20 
224 2 2 0 -29 -28 20 
225 2 2 0 -28 -28 20 
226 2 2 0 -27 -28 20 
227 2 2 0 -26 -28 20 
228 2 2 0 -25 -28 20 
229 2 2 0 -24 -28 20 
230 2 2 0 -23 -28 20 
231 2 2 0 -22 -28 20 
232 2 2 0 -21 -28 20 
233 2 2 0 -20 -28 20 
234 2 2 0 -19 -28 20 
235 2 2 0 -18 -28 20 
236 2 2 0 -17 -28 20 
237 2 2 0 -16 -28 20 
238 2 2 0 -15 -28 20 
239 2 2 0 -14 -28 20 
240 2 2 0 -13 -28 20 
241 2 2 0 -12 -28 20 
242 2 2 0 -11 -28 20 
243 2 2 0 -10 -28 20 
244 2 2 0 -9 -28 20 
245 2 2 0 -8 -28 20 
246 2 2 0 -7 -28 20 
247 2 2 0 -6 -28 20 
248 2 2 0 -5 -28 20 
249 2 2 0 -4 -28 20 
250 2 2 0 -3 -28 20 
251 2 2 0 -2 -28 20 
252 2 2 0 -1 -28 20 
253 2 2 0 0 -28 20 
254 2 2 0 1 -28 20 
255 2 2 0 2 -28 20 
256 2 2 0 3 -28 20 
257 2 2 0 4 -28 20 
258 2 2 0 5 -28 20 
259 2 2 0 6 -28 20 
260 2 2 0 7 -28 20 
261 2 2 0 8 -28 20 
262 2 2 0 9 -28 20 
263 2 2 0 10 -28 20 
264 2 2 0 11 -28 20 
265 2 2 0 12 -28 20 
266 2 2 0 13 -28 20 
267 2 2 0 14 -28 20 
268 2 2 0 15 -28 20 
269 2 2 0 16 -28 20 
270 2 2 0 17 -28 20 
271 2 2 0 18 -28 20 
272 2 2 0 19 -28 20 
273 2 2 0 20 -28 20 
274 2 2 0 21 -28 20 
275 2 2 0 22 -28 20 
276 2 2 0 23 -28 20 
277 2 2 0 24 -28 20 
278 2 2 0 25 -28 20 
279 2 2 0 26 -28 20 
280 2 2 0 27 -28 20 
281 2 2 0 28 -28 20 
282 2 2 0 29 -28 20 
283 2 2 0 30 -28 20 
284 2 2 0 -30 -27 20 
285 2 2 0 -29 -27 20 
286 2 2 0 -28 -27 20 
287 2 2 0 -27 -27 20 
288 2 2 0 -26 -27 20 
289 2 2 0 -25 -27 20 
290 2 2 0 -24 -27 20 
291 2 2 0 -23 -27 20 
292 2 2 0 -22 -27 20 
293 2 2 0 -21 -27 20 
294 2 2 0 -20 -27 20 
295 2 2 0 -19 -27 20 
296 2 2 0 -18 -27 20 
297 2 2 0 -17 -27 20 
298 2 2 0 -16 -27 20 
299 2 2 0 -15 -27 20 
300 2 2 0 -14 -27 20 
301 2 2 0 -13 -27 20 
302 2 2 0 -12 -27 20 
303 2 2 0 -11 -27 20 
304 2 2 0 -10 -27 20 
305 2 2 0 -9 -27 20 
306 2 2 0 -8 -27 20 
307 2 2 0 -7 -27 20 
308 2 2 0 -6 -27 20 
309 2 2 0 -5 -27 20 
310 2 2 0 -4 -27 20 
311 2 2 0 -3 -27 20 
312 2 2 0 -2 -27 20 
313 2 2 0 -1 -27 20 
314 2 2 0 0 -27 20 
315 2 2 0 1 -27 20 
316 2 2 0 2 -27 20 
317 2 2 0 3 -27 20 
318 2 2 0 4 -27 20 
319 2 2 0 5 -27 20 
320 2 2 0 6 -27 20 
321 2 2 0 7 -27 20 
322 2 2 0 8 -27 20 
323 2 2 0 9 -27 20 
324 2 2 0 10 -27 20 
325 2 2 0 11 -27 20 
326 2 2 0 12 -27 20 
327 2 2 0 13 -27 20 
328 2 2 0 14 -27 20 
329 2 2 0 15 -27 20 
330 2 2 0 16 -27 20 
331 2 2 0 17 -27 20 
332 2 2 0 18 -27 20 
333 2 2 0 19 -27 20 
334 2 2 0 20 -27 20 
335 2 2 0 21 -27 20 
336 2 2 0 22 -27 20 
337 2 2 0 23 -27 20 
338 2 2 0 24 -27 20 
339 2 2 0 25 -27 20 
340 2 2 0 26 -27 20 
341 2 2 0 27 -27 20 
342 2 2 0 28 -27 20 
343 2 2 0 29 -27 20 
344 2 2 0 30 -27 20 
345 2 2 0 -30 -26 20 
346 2 2 0 -29 -26 20 
347 2 2 0 -28 -26 20 
348 2 2 0 -27 -26 20 
349 2 2 0 -26 -26 20 
350 2 2 0 -25 -26 20 
351 2 2 0 -24 -26 20 
352 2 2 0 -23 -26 20 
353 2 2 0 -22 -26 20 
354 2 2 0 -21 -26 20 
355 2 2 0 -20 -26 20 
356 2 2 0 -19 -26 20 
357 2 2 0 -18 -26 20 
358 2 2 0 -17 -26 20 
359 2 2 0 -16 -26 20 
360 2 2 0 -15 -26 20 
361 2 2 0 -14 -26 20 
362 2 2 0 -13 -26 20 
363 2 2 0 -12 -26 20 
364 2 2 0 -11 -26 20 
365 2 2 0 -10 -26 20 
366 2 2 0 -9 -26 20 
367 2 2 0 -8 -26 20 
368 2 2 0 -7 -26 20 
369 2 2 0 -6 -26 20 
370 2 2 0 -5 -26 20 
371 2 2 0 -4 -26 20 
372 2 2 0 -3 -26 20 
373 2 2 0 -2 -26 20 
374 2 2 0 -1 -26 20 
375 2 2 0 0 -26 20 
376 2 2 0 1 -26 20 
377 2 2 0 2 -26 20 
378 2 2 0 3 -26 20 
379 2 2 0 4 -26 20 
380 2 2 0 5 -26 20 
381 2 2 0 6 -26 20 
382 2 2 0 7 -26 20 
383 2 2 0 8 -26 20 
384 2 2 0 9 -26 20 
385 2 2 0 10 -26 20 
386 2 2 0 11 -26 20 
387 2 2 0 12 -26 20 
388 2 2 0 13 -26 20 
389 2 2 0 14 -26 20 
390 2 2 0 15 -26 20 
391 2 2 0 16 -26 20 
392 2 2 0 17 -26 20 
393 2 2 0 18 -26 20 
394 2 2 0 19 -26 20 
395 2 2 0 20 -26 20 
396 2 2 0 21 -26 20 
397 2 2 0 22 -26 20 
398 2 2 0 23 -26 20 
399 2 2 0 24 -26 20 
400 2 2 0 25 -26 20 
401 2 2 0 26 -26 20 
402 2 2 0 27 -26 20 
403 2 2 0 28 -26 20 
404 2 2 0 29 -26 20 
405 2 2 0 30 -26 20 
406 2 2 0 -30 -25 20 
407 2 2 0 -29 -25 20 
408 2 2 0 -28 -25 20 
409 2 2 0 -27 -25 20 
410 2 2 0 -26 -25 20 
411 2 2 0 -25 -25 20 
412 2 2 0 -24 -25 20 
413 2 2 0 -23 -25 20 
414 2 2 0 -22 -25 20 
415 2 2 0 -21 -25 20 
416 2 2 0 -20 -25 20 
417 2 2 0 -19 -25 20 
418 2 2 0 -18 -25 20 
419 2 2 0 -17 -25 20 
420 2 2 0 -16 -25 20 
421 2 2 0 -15 -25 20 
422 2 2 0 -14 -25 20 
423 2 2 0 -13 -25 20 
424 2 2 0 -12 -25 20 
425 2 2 0 -11 -25 20 
426 2 2 0 -10 -25 20 
427 2 2 0 -9 -25 20 
428 2 2 0 -8 -25 20 
429 2 2 0 -7 -25 20 
430 2 2 0 -6 -25 20 
431 2 2 0 -5 -25 20 
432 2 2 0 -4 -25 20 
433 2 2 0 -3 -25 20 
434 2 2 0 -2 -25 20 
435 2 2 0 -1 -25 20 
436 2 2 0 0 -25 20 
437 2 2 0 1 -25 20 
438 2 2 0 2 -25 20 
439 2 2 0 3 -25 20 
440 2 2 0 4 -25 20 
441 2 2 0 5 -25 20 
442 2 2 0 6 -25 20 
443 2 2 0 7 -25 20 
444 2 2 0 8 -25 20 
445 2 2 0 9 -25 20 
446 2 2 0 10 -25 20 
447 2 2 0 11 -25 20 
448 2 2 0 12 -25 20 
449 2 2 0 13 -25 20 
450 2 2 0 14 -25 20 
451 2 2 0 15 -25 20 
452 2 2 0 16 -25 20 
453 2 2 0 17 -25 20 
454 2 2 0 18 -25 20 
455 2 2 0 19 -25 20 
456 2 2 0 20 -25 20 
457 2 2 0 21 -25 20 
458 2 2 0 22 -25 20 
459 2 2 0 23 -25 20 
460 2 2 0 24 -25 20 
461 2 2 0 25 -25 20 
462 2 2 0 26 -25 20 
463 2 2 0 27 -25 20 
464 2 2 0 28 -25 20 
465 2 2 0 29 -25 20 
466 2 2 0 30 -25 20 
467 2 2 0 -30 -24 20 
468 2 2 0 -29 -24 20 
469 2 2 0 -28 -24 20 
470 2 2 0 -27 -24 20 
471 2 2 0 -26 -24 20 
472 2 2 0 -25 -24 20 
473 2 2 0 -24 -24 20 
474 2 2 0 -23 -24 20 
475 2 2 0 -22 -24 20 
476 2 2 0 -21 -24 20 
477 2 2 0 -20 -24 20 
478 2 2 0 -19 -24 20 
479 2 2 0 -18 -24 20 
480 2 2 0 -17 -24 20 
481 2 2 0 -16 -24 20 
482 2 2 0 -15 -24 20 
483 2 2 0 -14 -24 20 
484 2 2 0 -13 -24 20 
485 2 2 0 -12 -24 20 
486 2 2 0 -11 -24 20 
487 2 2 0 -10 -24 20 
488 2 2 0 -9 -24 20 
489 2 2 0 -8 -24 20 
490 2 2 0 -7 -24 20 
491 2 2 0 -6 -24 20 
492 2 2 0 -5 -24 20 
493 2 2 0 -4 -24 20 
494 2 2 0 -3 -24 20 
495 2 2 0 -2 -24 20 
496 2 2 0 -1 -24 20 
497 2 2 0 0 -24 20 
498 2 2 0 1 -24 20 
499 2 2 0 2 -24 20 
500 2 2 0 3 -24 20 
501 2 2 0 4 -24 20 
502 2 2 0 5 -24 20 
503 2 2 0 6 -24 20 
504 2 2 0 7 -24 20 
505 2 2 0 8 -24 20 
506 2 2 0 9 -24 20 
507 2 2 0 10 -24 20 
508 2 2 0 11 -24 20 
509 2 2 0 12 -24 20 
510 2 2 0 13 -24 20 
511 2 2 0 14 -24 20 
512 2 2 0 15 -24 20 
513 2 2 0 16 -24 20 
514 2 2 0 17 -24 20 
515 2 2 0 18 -24 20 
516 2 2 0 19 -24 20 
517 2 2 0 20 -24 20 
518 2 2 0 21 -24 20 
519 2 2 0 22 -24 20 
520 2 2 0 23 -24 20 
521 2 2 0 24 -24 20 
522 2 2 0 25 -24 20 
523 2 2 0 26 -24 20 
524 2 2 0 27 -24 20 
525 2 2 0 28 -24 20 
526 2 2 0 29 -24 20 
527 2 2 0 30 -24 20 
528 2 2 0 -30 -23 20 
529 2 2 0 -29 -23 20 
530 2 2 0 -28 -23 20 
531 2 2 0 -27 -23 20 
532 2 2 0 -26 -23 20 
533 2 2 0 -25 -23 20 
534 2 2 0 -24 -23 20 
535 2 2 0 -23 -23 20 
536 2 2 0 -22 -23 20 
537 2 2 0 -21 -23 20 
538 2 2 0 -20 -23 20 
539 2 2 0 -19 -23 20 
540 2 2 0 -18 -23 20 
541 2 2 0 -17 -23 20 
542 2 2 0 -16 -23 20 
543 2 2 0 -15 -23 20 
544 2 2 0 -14 -23 20 
545 2 2 0 -13 -23 20 
546 2 2 0 -12 -23 20 
547 2 2 0 -11 -23 20 
548 2 2 0 -10 -23 20 
549 2 2 0 -9 -23 20 
550 2 2 0 -8 -23 20 
551 2 2 0 -7 -23 20 
552 2 2 0 -6 -23 20 
553 2 2 0 -5 -23 20 
554 2 2 0 -4 -23 20 
555 2 2 0 -3 -23 20 
556 2 2 0 -2 -23 20 
557 2 2 0 -1 -23 20 
558 2 2 0 0 -23 20 
559 2 2 0 1 -23 20 
560 2 2 0 2 -23 20 
561 2 2 0 3 -23 20 
562 2 2 0 4 -23 20 
563 2 2 0 5 -23 20 
564 2 2 0 6 -23 20 
565 2 2 0 7 -23 20 
566 2 2 0 8 -23 20 
567 2 2 0 9 -23 20 
568 2 2 0 10 -23 20 
569 2 2 0 11 -23 20 
570 2 2 0 12 -23 20 
571 2 2 0 13 -23 20 
572 2 2 0 14 -23 20 
573 2 2 0 15 -23 20 
574 2 2 0 16 -23 20 
575 2 2 0 17 -23 20 
576 2 2 0 18 -23 20 
577 2 2 0 19 -23 20 
578 2 2 0 20 -23 20 
579 2 2 0 21 -23 20 
580 2 2 0 22 -23 20 
581 2 2 0 23 -23 20 
582 2 2 0 24 -23 20 
583 2 2 0 25 -23 20 
584 2 2 0 26 -23 20 
585 2 2 0 27 -23 20 
586 2 2 0 28 -23 20 
587 2 2 0 29 -23 20 
588 2 2 0 30 -23 20 
589 2 2 0 -30 -22 20 
590 2 2 0 -29 -22 20 
591 2 2 0 -28 -22 20 
592 2 2 0 -27 -22 20 
593 2 2 0 -26 -22 20 
594 2 2 0 -25 -22 20 
595 2 2 0 -24 -22 20 
596 2 2 0 -23 -22 20 
597 2 2 0 -22 -22 20 
598 2 2 0 -21 -22 20 
599 2 2 0 -20 -22 20 
600 2 2 0 -19 -22 20 
601 2 2 0 -18 -22 20 
602 2 2 0 -17 -22 20 
603 2 2 0 -16 -22 20 
604 2 2 0 -15 -22 20 
605 2 2 0 -14 -22 20 
606 2 2 0 -13 -22 20 
607 2 2 0 -12 -22 20 
608 2 2 0 -11 -22 20 
609 2 2 0 -10 -22 20 
610 2 2 0 -9 -22 20 
611 2 2 0 -8 -22 20 
612 2 2 0 -7 -22 20 
613 2 2 0 -6 -22 20 
614 2 2 0 -5 -22 20 
615 2 2 0 -4 -22 20 
616 2 2 0 -3 -22 20 
617 2 2 0 -2 -22 20 
618 2 2 0 -1 -22 20 
619 2 2 0 0 -22 20 
620 2 2 0 1 -22 20 
621 2 2 0 2 -22 20 
622 2 2 0 3 -22 20 
623 2 2 0 4 -22 20 
624 2 2 0 5 -22 20 
625 2 2 0 6 -22 20 
626 2 2 0 7 -22 20 
627 2 2 0 8 -22 20 
628 2 2 0 9 -22 20 
629 2 2 0 10 -22 20 
630 2 2 0 11 -22 20 
631 2 2 0 12 -22 20 
632 2 2 0 13 -22 20 
633 2 2 0 14 -22 20 
634 2 2 0 15 -22 20 
635 2 2 0 16 -22 20 
636 2 2 0 17 -22 20 
637 2 2 0 18 -22 20 
638 2 2 0 19 -22 20 
639 2 2 0 20 -22 20 
640 2 2 0 21 -22 20 
641 2 2 0 22 -22 20 
642 2 2 0 23 -22 20 
643 2 2 0 24 -22 20 
644 2 2 0 25 -22 20 
645 2 2 0 26 -22 20 
646 2 2 0 27 -22 20 
647 2 2 0 28 -22 20 
648 2 2 0 29 -22 20 
649 2 2 0 30 -22 20 
650 2 2 0 -30 -21 20 
651 2 2 0 -29 -21 20 
652 2 2 0 -28 -21 20 
653 2 2 0 -27 -21 20 
654 2 2 0 -26 -21 20 
655 2 2 0 -25 -21 20 
656 2 2 0 -24 -21 20 
657 2 2 0 -23 -21 20 
658 2 2 0 -22 -21 20 
659 2 2 0 -21 -21 20 
660 2 2 0 -20 -21 20 
661 2 2 0 -19 -21 20 
662 2 2 0 -18 -21 20 
663 2 2 0 -17 -21 20 
664 2 2 0 -16 -21 20 
665 2 2 0 -15 -21 20 
666 2 2 0 -14 -21 20 
667 2 2 0 -13 -21 20 
668 2 2 0 -12 -21 20 
669 2 2 0 -11 -21 20 
670 2 2 0 -10 -21 20 
671 2 2 0 -9 -21 20 
672 2 2 0 -8 -21 20 
673 2 2 0 -7 -21 20 
674 2 2 0 -6 -21 20 
675 2 2 0 -5 -21 20 
676 2 2 0 -4 -21 20 
677 2 2 0 -3 -21 20 
678 2 2 0 -2 -21 20 
679 2 2 0 -1 -21 20 
680 2 2 0 0 -21 20 
681 2 2 0 1 -21 20 
682 2 2 0 2 -21 20 
683 2 2 0 3 -21 20 
684 2 2 0 4 -21 20 
685 2 2 0 5 -21 20 
686 2 2 0 6 -21 20 
687 2 2 0 7 -21 20 
688 2 2 0 8 -21 20 
689 2 2 0 9 -21 20 
690 2 2 0 10 -21 20 
691 2 2 0 11 -21 20 
692 2 2 0 12 -21 20 
693 2 2 0 13 -21 20 
694 2 2 0 14 -21 20 
695 2 2 0 15 -21 20 
696 2 2 0 16 -21 20 
697 2 2 0 17 -21 20 
698 2 2 0 18 -21 20 
699 2 2 0 19 -21 20 
700 2 2 0 20 -21 20 
701 2 2 0 21 -21 20 
702 2 2 0 22 -21 20 
703 2 2 0 23 -21 20 
704 2 2 0 24 -21 20 
705 2 2 0 25 -21 20 
706 2 2 0 26 -21 20 
707 2 2 0 27 -21 20 
708 2 2 0 28 -21 20 
709 2 2 0 29 -21 20 
710 2 2 0 30 -21 20 
711 2 2 0 -30 -20 20 
712 2 2 0 -29 -20 20 
713 2 2 0 -28 -20 20 
714 2 2 0 -27 -20 20 
715 2 2 0 -26 -20 20 
716 2 2 0 -25 -20 20 
717 2 2 0 -24 -20 20 
718 2 2 0 -23 -20 20 
719 2 2 0 -22 -20 20 
720 2 2 0 -21 -20 20 
721 2 2 0 -20 -20 20 
722 2 2 0 -19 -20 20 
723 2 2 0 -18 -20 20 
724 2 2 0 -17 -20 20 
725 2 2 0 -16 -20 20 
726 2 2 0 -15 -20 20 
727 2 2 0 -14 -20 20 
728 2 2 0 -13 -20 20 
729 2 2 0 -12 -20 20 
730 2 2 0 -11 -20 20 
731 2 2 0 -10 -20 20 
732 2 2 0 -9 -20 20 
733 2 2 0 -8 -20 20 
734 2 2 0 -7 -20 20 
735 2 2 0 -6 -20 20 
736 2 2 0 -5 -20 20 
737 2 2 0 -4 -20 20 
738 2 2 0 -3 -20 20 
739 2 2 0 -2 -20 20 
740 2 2 0 -1 -20 20 
741 2 2 0 0 -20 20 
742 2 2 0 1 -20 20 
743 2 2 0 2 -20 20 
744 2 2 0 3 -20 20 
745 2 2 0 4 -20 20 
746 2 2 0 5 -20 20 
747 2 2 0 6 -20 20 
748 2 2 0 7 -20 20 
749 2 2 0 8 -20 20 
750 2 2 0 9 -20 20 
751 2 2 0 10 -20 20 
752 2 2 0 11 -20 20 
753 2 2 0 12 -20 20 
754 2 2 0 13 -20 20 
755 2 2 0 14 -20 20 
756 2 2 0 15 -20 20 
757 2 2 0 16 -20 20 
758 2 2 0 17 -20 20 
759 2 2 0 18 -20 20 
760 2 2 0 19 -20 20 
761 2 2 0 20 -20 20 
762 2 2 0 21 -20 20 
763 2 2 0 22 -20 20 
764 2 2 0 23 -20 20 
765 2 2 0 24 -20 20 
766 2 2 0 25 -20 20 
767 2 2 0 26 -20 20 
768 2 2 0 27 -20 20 
769 2 2 0 28 -20 20 
770 2 2 0 29 -20 20 
771 2 2 0 30 -20 20 
772 2 2 0 -30 -19 20 
773 2 2 0 -29 -19 20 
774 2 2 0 -28 -19 20 
775 2 2 0 -27 -19 20 
776 2 2 0 -26 -19 20 
777 2 2 0 -25 -19 20 
778 2 2 0 -24 -19 20 
779 2 2 0 -23 -19 20 
780 2 2 0 -22 -19 20 
781 2 2 0 -21 -19 20 
782 2 2 0 -20 -19 20 
783 2 2 0 -19 -19 20 
784 2 2 0 -18 -19 20 
785 2 2 0 -17 -19 20 
786 2 2 0 -16 -19 20 
787 2 2 0 -15 -19 20 
788 2 2 0 -14 -19 20 
789 2 2 0 -13 -19 20 
790 2 2 0 -12 -19 20 
791 2 2 0 -11 -19 20 
792 2 2 0 -10 -19 20 
793 2 2 0 -9 -19 20 
794 2 2 0 -8 -19 20 
795 2 2 0 -7 -19 20 
796 2 2 0 -6 -19 20 
797 2 2 0 -5 -19 20 
798 2 2 0 -4 -19 20 
799 2 2 0 -3 -19 20 
800 2 2 0 -2 -19 20 
801 2 2 0 -1 -19 20 
802 2 2 0 0 -19 20 
803 2 2 0 1 -19 20 
804 2 2 0 2 -19 20 
805 2 2 0 3 -19 20 
806 2 2 0 4 -19 20 
807 2 2 0 5 -19 20 
808 2 2 0 6 -19 20 
809 2 2 0 7 -19 20 
810 2 2 0 8 -19 20 
811 2 2 0 9 -19 20 
812 2 2 0 10 -19 20 
813 2 2 0 11 -19 20 
814 2 2 0 12 -19 20 
815 2 2 0 13 -19 20 
816 2 2 0 14 -19 20 
817 2 2 0 15 -19 20 
818 2 2 0 16 -19 20 
819 2 2 0 17 -19 20 
820 2 2 0 18 -19 20 
821 2 2 0 19 -19 20 
822 2 2 0 20 -19 20 
823 2 2 0 21 -19 20 
824 2 2 0 22 -19 20 
825 2 2 0 23 -19 20 
826 2 2 0 24 -19 20 
827 2 2 0 25 -19 20 
828 2 2 0 26 -19 20 
829 2 2 0 27 -19 20 
830 2 2 0 28 -19 20 
831 2 2 0 29 -19 20 
832 2 2 0 30 -19 20 
833 2 2 0 -30 -18 20 
834 2 2 0 -29 -18 20 
835 2 2 0 -28 -18 20 
836 2 2 0 -27 -18 20 
837 2 2 0 -26 -18 20 
838 2 2 0 -25 -18 20 
839 2 2 0 -24 -18 20 
840 2 2 0 -23 -18 20 
841 2 2 0 -22 -18 20 
842 2 2 0 -21 -18 20 
843 2 2 0 -20 -18 20 
844 2 2 0 -19 -18 20 
845 2 2 0 -18 -18 20 
846 2 2 0 -17 -18 20 
847 2 2 0 -16 -18 20 
848 2 2 0 -15 -18 20 
849 2 2 0 -14 -18 20 
850 2 2 0 -13 -18 20 
851 2 2 0 -12 -18 20 
852 2 2 0 -11 -18 20 
853 2 2 0 -10 -18 20 
854 2 2 0 -9 -18 20 
855 2 2 0 -8 -18 20 
856 2 2 0 -7 -18 20 
857 2 2 0 -6 -18 20 
858 2 2 0 -5 -18 20 
859 2 2 0 -4 -18 20 
860 2 2 0 -3 -18 20 
861 2 2 0 -2 -18 20 
862 2 2 0 -1 -18 20 
863 2 2 0 0 -18 20 
864 2 2 0 1 -18 20 
865 2 2 0 2 -18 20 
866 2 2 0 3 -18 20 
867 2 2 0 4 -18 20 
868 2 2 0 5 -18 20 
869 2 2 0 6 -18 20 
870 2 2 0 7 -18 20 
871 2 2 0 8 -18 20 
872 2 2 0 9 -18 20 
873 2 2 0 10 -18 20 
874 2 2 0 11 -18 20 
875 2 2 0 12 -18 20 
876 2 2 0 13 -18 20 
877 2 2 0 14 -18 20 
878 2 2 0 15 -18 20 
879 2 2 0 16 -18 20 
880 2 2 0 17 -18 20 
881 2 2 0 18 -18 20 
882 2 2 0 19 -18 20 
883 2 2 0 20 -18 20 
884 2 2 0 21 -18 20 
885 2 2 0 22 -18 20 
886 2 2 0 23 -18 20 
887 2 2 0 24 -18 20 
888 2 2 0 25 -18 20 
889 2 2 0 26 -18 20 
890 2 2 0 27 -18 20 
891 2 2 0 28 -18 20 
892 2 2 0 29 -18 20 
893 2 2 0 30 -18 20 
894 2 2 0 -30 -17 20 
895 2 2 0 -29 -17 20 
896 2 2 0 -28 -17 20 
897 2 2 0 -27 -17 20 
898 2 2 0 -26 -17 20 
899 2 2 0 -25 -17 20 
900 2 2 0 -24 -17 20 
901 2 2 0 -23 -17 20 
902 2 2 0 -22 -17 20 
903 2 2 0 -21 -17 20 
904 2 2 0 -20 -17 20 
905 2 2 0 -19 -17 20 
906 2 2 0 -18 -17 20 
907 2 2 0 -17 -17 20 
908 2 2 0 -16 -17 20 
909 2 2 0 -15 -17 20 
910 2 2 0 -14 -17 20 
911 2 2 0 -13 -17 20 
912 2 2 0 -12 -17 20 
913 2 2 0 -11 -17 20 
914 2 2 0 -10 -17 20 
915 2 2 0 -9 -17 20 
916 2 2 0 -8 -17 20 
917 2 2 0 -7 -17 20 
918 2 2 0 -6 -17 20 
919 2 2 0 -5 -17 20 
920 2 2 0 -4 -17 20 
921 2 2 0 -3 -17 20 
922 2 2 0 -2 -17 20 
923 2 2 0 -1 -17 20 
924 2 2 0 0 -17 20 
925 2 2 0 1 -17 20 
926 2 2 0 2 -17 20 
927 2 2 0 3 -17 20 
928 2 2 0 4 -17 20 
929 2 2 0 5 -17 20 
930 2 2 0 6 -17 20 
931 2 2 0 7 -17 20 
932 2 2 0 8 -17 20 
933 2 2 0 9 -17 20 
934 2 2 0 10 -17 20 
935 2 2 0 11 -17 20 
936 2 2 0 12 -17 20 
937 2 2 0 13 -17 20 
938 2 2 0 14 -17 20 
939 2 2 0 15 -17 20 
940 2 2 0 16 -17 20 
941 2 2 0 17 -17 20 
942 2 2 0 18 -17 20 
943 2 2 0 19 -17 20 
944 2 2 0 20 -17 20 
945 2 2 0 21 -17 20 
946 2 2 0 22 -17 20 
947 2 2 0 23 -17 20 
948 2 2 0 24 -17 20 
949 2 2 0 25 -17 20 
950 2 2 0 26 -17 20 
951 2 2 0 27 -17 20 
952 2 2 0 28 -17 20 
953 2 2 0 29 -17 20 
954 2 2 0 30 -17 20 
955 2 2 0 -30 -16 20 
956 2 2 0 -29 -16 20 
957 2 2 0 -28 -16 20 
958 2 2 0 -27 -16 20 
959 2 2 0 -26 -16 20 
960 2 2 0 -25 -16 20 
961 2 2 0 -24 -16 20 
962 2 2 0 -23 -16 20 
963 2 2 0 -22 -16 20 
964 2 2 0 -21 -16 20 
965 2 2 0 -20 -16 20 
966 2 2 0 -19 -16 20 
967 2 2 0 -18 -16 20 
968 2 2 0 -17 -16 20 
969 2 2 0 -16 -16 20 
970 2 2 0 -15 -16 20 
971 2 2 0 -14 -16 20 
972 2 2 0 -13 -16 20 
973 2 2 0 -12 -16 20 
974 2 2 0 -11 -16 20 
975 2 2 0 -10 -16 20 
976 2 2 0 -9 -16 20 
977 2 2 0 -8 -16 20 
978 2 2 0 -7 -16 20 
979 2 2 0 -6 -16 20 
980 2 2 0 -5 -16 20 
981 2 2 0 -4 -16 20 
982 2 2 0 -3 -16 20 
983 2 2 0 -2 -16 20 
984 2 2 0 -1 -16 20 
985 2 2 0 0 -16 20 
986 2 2 0 1 -16 20 
987 2 2 0 2 -16 20 
988 2 2 0 3 -16 20 
989 2 2 0 4 -16 20 
990 2 2 0 5 -16 20 
991 2 2 0 6 -16 20 
992 2 2 0 7 -16 20 
993 2 2 0 8 -16 20 
994 2 2 0 9 -16 20 
995 2 2 0 10 -16 20 
996 2 2 0 11 -16 20 
997 2 2 0 12 -16 20 
998 2 2 0 13 -16 20 
999 2 2 0 14 -16 20 
1000 2 2 0 15 -16 20 
1001 2 2 0 16 -16 20 
1002 2 2 0 17 -16 20 
1003 2 2 0 18 -16 20 
1004 2 2 0 19 -16 20 
1005 2 2 0 20 -16 20 
1006 2 2 0 21 -16 20 
1007 2 2 0 22 -16 20 
1008 2 2 0 23 -16 20 
1009 2 2 0 24 -16 20 
1010 2 2 0 25 -16 20 
1011 2 2 0 26 -16 20 
1012 2 2 0 27 -16 20 
1013 2 2 0 28 -16 20 
1014 2 2 0 29 -16 20 
1015 2 2 0 30 -16 20 
1016 2 2 0 -30 -15 20 
1017 2 2 0 -29 -15 20 
1018 2 2 0 -28 -15 20 
1019 2 2 0 -27 -15 20 
1020 2 2 0 -26 -15 20 
1021 2 2 0 -25 -15 20 
1022 2 2 0 -24 -15 20 
1023 2 2 0 -23 -15 20 
1024 2 2 0 -22 -15 20 
1025 2 2 0 -21 -15 20 
1026 2 2 0 -20 -15 20 
1027 2 2 0 -19 -15 20 
1028 2 2 0 -18 -15 20 
1029 2 2 0 -17 -15 20 
1030 2 2 0 -16 -15 20 
1031 2 2 0 -15 -15 20 
1032 2 2 0 -14 -15 20 
1033 2 2 0 -13 -15 20 
1034 2 2 0 -12 -15 20 
1035 2 2 0 -11 -15 20 
1036 2 2 0 -10 -15 20 
1037 2 2 0 -9 -15 20 
1038 2 2 0 -8 -15 20 
1039 2 2 0 -7 -15 20 
1040 2 2 0 -6 -15 20 
1041 2 2 0 -5 -15 20 
1042 2 2 0 -4 -15 20 
1043 2 2 0 -3 -15 20 
1044 2 2 0 -2 -15 20 
1045 2 2 0 -1 -15 20 
1046 2 2 0 0 -15 20 
1047 2 2 0 1 -15 20 
1048 2 2 0 2 -15 20 
1049 2 2 0 3 -15 20 
1050 2 2 0 4 -15 20 
1051 2 2 0 5 -15 20 
1052 2 2 0 6 -15 20 
1053 2 2 0 7 -15 20 
1054 2 2 0 8 -15 20 
1055 2 2 0 9 -15 20 
1056 2 2 0 10 -15 20 
1057 2 2 0 11 -15 20 
1058 2 2 0 12 -15 20 
1059 2 2 0 13 -15 20 
1060 2 2 0 14 -15 20 
1061 2 2 0 15 -15 20 
1062 2 2 0 16 -15 20 
1063 2 2 0 17 -15 20 
1064 2 2 0 18 -15 20 
1065 2 2 0 19 -15 20 
1066 2 2 0 20 -15 20 
1067 2 2 0 21 -15 20 
1068 2 2 0 22 -15 20 
1069 2 2 0 23 -15 20 
1070 2 2 0 24 -15 20 
1071 2 2 0 25 -15 20 
1072 2 2 0 26 -15 20 
1073 2 2 0 27 -15 20 
1074 2 2 0 28 -15 20 
1075 2 2 0 29 -15 20 
1076 2 2 0 30 -15 20 
1077 2 2 0 -30 -14 20 
1078 2 2 0 -29 -14 20 
1079 2 2 0 -28 -14 20 
1080 2 2 0 -27 -14 20 
1081 2 2 0 -26 -14 20 
1082 2 2 0 -25 -14 20 
1083 2 2 0 -24 -14 20 
1084 2 2 0 -23 -14 20 
1085 2 2 0 -22 -14 20 
1086 2 2 0 -21 -14 20 
1087 2 2 0 -20 -14 20 
1088 2 2 0 -19 -14 20 
1089 2 2 0 -18 -14 20 
1090 2 2 0 -17 -14 20 
1091 2 2 0 -16 -14 20 
1092 2 2 0 -15 -14 20 
1093 2 2 0 -14 -14 20 
1094 2 2 0 -13 -14 20 
1095 2 2 0 -12 -14 20 
1096 2 2 0 -11 -14 20 
1097 2 2 0 -10 -14 20 
1098 2 2 0 -9 -14 20 
1099 2 2 0 -8 -14 20 
1100 2 2 0 -7 -14 20 
1101 2 2 0 -6 -14 20 
1102 2 2 0 -5 -14 20 
1103 2 2 0 -4 -14 20 
1104 2 2 0 -3 -14 20 
1105 2 2 0 -2 -14 20 
1106 2 2 0 -1 -14 20 
1107 2 2 0 0 -14 20 
1108 2 2 0 1 -14 20 
1109 2 2 0 2 -14 20 
1110 2 2 0 3 -14 20 
1111 2 2 0 4 -14 20 
1112 2 2 0 5 -14 20 
1113 2 2 0 6 -14 20 
1114 2 2 0 7 -14 20 
1115 2 2 0 8 -14 20 
1116 2 2 0 9 -14 20 
1117 2 2 0 10 -14 20 
1118 2 2 0 11 -14 20 
1119 2 2 0 12 -14 20 
1120 2 2 0 13 -14 20 
1121 2 2 0 14 -14 20 
1122 2 2 0 15 -14 20 
1123 2 2 0 16 -14 20 
1124 2 2 0 17 -14 20 
1125 2 2 0 18 -14 20 
1126 2 2 0 19 -14 20 
1127 2 2 0 20 -14 20 
1128 2 2 0 21 -14 20 
1129 2 2 0 22 -14 20 
1130 2 2 0 23 -14 20 
1131 2 2 0 24 -14 20 
1132 2 2 0 25 -14 20 
1133 2 2 0 26 -14 20 
1134 2 2 0 27 -14 20 
1135 2 2 0 28 -14 20 
1136 2 2 0 29 -14 20 
1137 2 2 0 30 -14 20 
1138 2 2 0 -30 -13 20 
1139 2 2 0 -29 -13 20 
1140 2 2 0 -28 -13 20 
1141 2 2 0 -27 -13 20 
1142 2 2 0 -26 -13 20 
1143 2 2 0 -25 -13 20 
1144 2 2 0 -24 -13 20 
1145 2 2 0 -23 -13 20 
1146 2 2 0 -22 -13 20 
1147 2 2 0 -21 -13 20 
1148 2 2 0 -20 -13 20 
1149 2 2 0 -19 -13 20 
1150 2 2 0 -18 -13 20 
1151 2 2 0 -17 -13 20 
1152 2 2 0 -16 -13 20 
1153 2 2 0 -15 -13 20 
1154 2 2 0 -14 -13 20 
1155 2 2 0 -13 -13 20 
1156 2 2 0 -12 -13 20 
1157 2 2 0 -11 -13 20 
1158 2 2 0 -10 -13 20 
1159 2 2 0 -9 -13 20 
1160 2 2 0 -8 -13 20 
1161 2 2 0 -7 -13 20 
1162 2 2 0 -6 -13 20 
1163 2 2 0 -5 -13 20 
1164 2 2 0 -4 -13 20 
1165 2 2 0 -3 -13 20 
1166 2 2 0 -2 -13 20 
1167 2 2 0 -1 -13 20 
1168 2 2 0 0 -13 20 
1169 2 2 0 1 -13 20 
1170 2 2 0 2 -13 20 
1171 2 2 0 3 -13 20 
1172 2 2 0 4 -13 20 
1173 2 2 0 5 -13 20 
1174 2 2 0 6 -13 20 
1175 2 2 0 7 -13 20 
1176 2 2 0 8 -13 20 
1177 2 2 0 9 -13 20 
1178 2 2 0 10 -13 20 
1179 2 2 0 11 -13 20 
1180 2 2 0 12 -13 20 
1181 2 2 0 13 -13 20 
1182 2 2 0 14 -13 20 
1183 2 2 0 15 -13 20 
1184 2 2 0 16 -13 20 
1185 2 2 0 17 -13 20 
1186 2 2 0 18 -13 20 
1187 2 2 0 19 -13 20 
1188 2 2 0 20 -13 20 
1189 2 2 0 21 -13 20 
1190 2 2 0 22 -13 20 
1191 2 2 0 23 -13 20 
1192 2 2 0 24 -13 20 
1193 2 2 0 25 -13 20 
1194 2 2 0 26 -13 20 
1195 2 2 0 27 -13 20 
1196 2 2 0 28 -13 20 
1197 2 2 0 29 -13 20 
1198 2 2 0 30 -13 20 
1199 2 2 0 -30 -12 20 
1200 2 2 0 -29 -12 20 
1201 2 2 0 -28 -12 20 
1202 2 2 0 -27 -12 20 
1203 2 2 0 -26 -12 20 
1204 2 2 0 -25 -12 20 
1205 2 2 0 -24 -12 20 
1206 2 2 0 -23 -12 20 
1207 2 2 0 -22 -12 20 
1208 2 2 0 -21 -12 20 
1209 2 2 0 -20 -12 20 
1210 2 2 0 -19 -12 20 
1211 2 2 0 -18 -12 20 
1212 2 2 0 -17 -12 20 
1213 2 2 0 -16 -12 20 
1214 2 2 0 -15 -12 20 
1215 2 2 0 -14 -12 20 
1216 2 2 0 -13 -12 20 
1217 2 2 0 -12 -12 20 
1218 2 2 0 -11 -12 20 
1219 2 2 0 -10 -12 20 
1220 2 2 0 -9 -12 20 
1221 2 2 0 -8 -12 20 
1222 2 2 0 -7 -12 20 
1223 2 2 0 -6 -12 20 
1224 2 2 0 -5 -12 20 
1225 2 2 0 -4 -12 20 
1226 2 2 0 -3 -12 20 
1227 2 2 0 -2 -12 20 
1228 2 2 0 -1 -12 20 
1229 2 2 0 0 -12 20 
1230 2 2 0 1 -12 20 
1231 2 2 0 2 -12 20 
1232 2 2 0 3 -12 20 
1233 2 2 0 4 -12 20 
1234 2 2 0 5 -12 20 
1235 2 2 0 6 -12 20 
1236 2 2 0 7 -12 20 
1237 2 2 0 8 -12 20 
1238 2 2 0 9 -12 20 
1239 2 2 0 10 -12 20 
1240 2 2 0 11 -12 20 
1241 2 2 0 12 -12 20 
1242 2 2 0 13 -12 20 
1243 2 2 0 14 -12 20 
1244 2 2 0 15 -12 20 
1245 2 2 0 16 -12 20 
1246 2 2 0 17 -12 20 
1247 2 2 0 18 -12 20 
1248 2 2 0 19 -12 20 
1249 2 2 0 20 -12 20 
1250 2 2 0 21 -12 20 
1251 2 2 0 22 -12 20 
1252 2 2 0 23 -12 20 
1253 2 2 0 24 -12 20 
1254 2 2 0 25 -12 20 
1255 2 2 0 26 -12 20 
1256 2 2 0 27 -12 20 
1257 2 2 0 28 -12 20 
1258 2 2 0 29 -12 20 
1259 2 2 0 30 -12 20 
1260 2 2 0 -30 -11 20 
1261 2 2 0 -29 -11 20 
1262 2 2 0 -28 -11 20 
1263 2 2 0 -27 -11 20 
1264 2 2 0 -26 -11 20 
1265 2 2 0 -25 -11 20 
1266 2 2 0 -24 -11 20 
1267 2 2 0 -23 -11 20 
1268 2 2 0 -22 -11 20 
1269 2 2 0 -21 -11 20 
1270 2 2 0 -20 -11 20 
1271 2 2 0 -19 -11 20 
1272 2 2 0 -18 -11 20 
1273 2 2 0 -17 -11 20 
1274 2 2 0 -16 -11 20 
1275 2 2 0 -15 -11 20 
1276 2 2 0 -14 -11 20 
1277 2 2 0 -13 -11 20 
1278 2 2 0 -12 -11 20 
1279 2 2 0 -11 -11 20 
1280 2 2 0 -10 -11 20 
1281 2 2 0 -9 -11 20 
1282 2 2 0 -8 -11 20 
1283 2 2 0 -7 -11 20 
1284 2 2 0 -6 -11 20 
1285 2 2 0 -5 -11 20 
1286 2 2 0 -4 -11 20 
1287 2 2 0 -3 -11 20 
1288 2 2 0 -2 -11 20 
1289 2 2 0 -1 -11 20 
1290 2 2 0 0 -11 20 
1291 2 2 0 1 -11 20 
1292 2 2 0 2 -11 20 
1293 2 2 0 3 -11 20 
1294 2 2 0 4 -11 20 
1295 2 2 0 5 -11 20 
1296 2 2 0 6 -11 20 
1297 2 2 0 7 -11 20 