LAMMPS (29 Mar 2019)
OMP_NUM_THREADS environment is not set. Defaulting to 1 thread. (src/comm.cpp:88)
  using 1 OpenMP thread(s) per MPI task
OMP_NUM_THREADS environment is not set. Defaulting to 1 thread. (src/comm.cpp:88)
  using 1 OpenMP thread(s) per MPI task
Reading data file ...
  orthogonal box = (-30 -30 -10) to (30 30 110)
  1 by 1 by 1 MPI processor grid
  reading atoms ...
  5312 atoms
  scanning bonds ...
  1 = max bonds/atom
  scanning angles ...
  1 = max angles/atom
  reading bonds ...
  99 bonds
  reading angles ...
  98 angles
Finding 1-2 1-3 1-4 neighbors ...
  special bond factors lj:   0          0          0         
  special bond factors coul: 0          0          0         
  2 = max # of 1-2 neighbors
  2 = max # of 1-3 neighbors
  4 = max # of 1-4 neighbors
  6 = max # of special neighbors
  special bonds CPU = 0.00116491 secs
  read_data CPU = 0.00714612 secs
Finding 1-2 1-3 1-4 neighbors ...
  special bond factors lj:   0          0          1         
  special bond factors coul: 0          1          1         
  2 = max # of 1-2 neighbors
  2 = max # of 1-3 neighbors
  6 = max # of special neighbors
  special bonds CPU = 0.00083065 secs
100 atoms in group polymer
5212 atoms in group pore
Neighbor list info ...
  update every 1 steps, delay 10 steps, check yes
  max neighbors/atom: 2000, page size: 100000
  master list distance cutoff = 3.3
  ghost atom cutoff = 3.3
  binsize = 1.65, bins = 37 37 73
  1 neighbor lists, perpetual/occasional/extra = 1 0 0
  (1) pair lj/cut/coul/debye, perpetual
      attributes: half, newton on
      pair build: half/bin/newton
      stencil: half/bin/3d/newton
      bin: standard
Setting up Verlet run ...
  Unit style    : lj
  Current step  : 0
  Time step     : 0.0002
Per MPI rank memory allocation (min/avg/max) = 7.095 | 7.095 | 7.095 Mbytes
Step Temp Press PotEng E_vdwl E_coul KinEng TotEng Enthalpy 
       0  0.018640557 0.00083425652    3.2074141 0.0031420739 0.0010572523  0.027955572    3.2353697    3.3032158 
    8000  0.021586818 0.00046245751  0.041859996 0.00017331879 0.00032953755  0.032374131  0.074234127   0.11184362 
   16000  0.020615008 -0.00043441377  0.032461784 0.00016583099 0.0003168653   0.03091669  0.063378474  0.028049643 
   24000  0.017995398 0.00019354194  0.028507763 0.00018214352 0.00032300358  0.026988016  0.055495779  0.071235636 
   32000  0.017930994 0.00070001324  0.028068813 0.00046194345 0.00031872151  0.026891427  0.054960241   0.11188903 
   40000  0.017159349 -0.00026426244  0.026183217 4.1040578e-05 0.00030951988  0.025734177  0.051917394  0.030426172 
   48000  0.019947999 0.0004802876  0.024768462 0.00012624517 0.00031566172  0.029916366  0.054684828  0.093744362 
   56000  0.019240289 -0.00046074988   0.02511374 0.00025169442 0.00032677611  0.028855001   0.05396874  0.016498118 
   64000  0.019356037 0.00016374397  0.020685944 0.00010095586 0.00030849644   0.02902859  0.049714534  0.063031062 
   72000  0.018907253 -0.00063688086  0.029832156 1.8287118e-05 0.00030463305  0.028355541  0.058187696 0.0063931681 
   80000  0.021482126 0.00014574372  0.019576526 2.9375998e-05 0.00030717181  0.032217122  0.051793648    0.0636463 
   88000   0.02123686 4.2135333e-06  0.021882621 1.703444e-06 0.00030705088  0.031849292  0.053731914  0.054074581 
   96000  0.016158498 -0.0005733461  0.022788301            0 0.0002987475  0.024233184  0.047021486 0.00039394119 
  104000  0.018191724 -0.00032713669  0.022166931 0.00012633731 0.0002967408  0.027282449   0.04944938  0.022844891 
  112000  0.018446621  0.000118577  0.023929449 3.2179501e-05 0.00030424941  0.027664723  0.051594172  0.061237482 
  120000  0.017700417 0.00012497137  0.022526873            0 0.00030441384  0.026545627    0.0490725  0.059235835 
  128000  0.015434651 0.00017206162  0.022364548            0 0.00030368114  0.023147618  0.045512166  0.059505129 
  136000  0.015302026 -0.00070747542  0.021845959 0.00010157478 0.00029549322  0.022948719  0.044794678 -0.012740974 
  144000  0.020449795 -0.0005311491   0.02245412            0 0.00029806779  0.030668917  0.053123037 0.0099271766 
  152000  0.018885299 -8.3405599e-05  0.023527642 5.8426159e-07 0.00031105673  0.028322616  0.051850258  0.045067273 
  160000  0.021165685 -0.00082834813  0.021906908            0 0.00029696923  0.031742551  0.053649459 -0.013716202 
  168000  0.021079639 -0.00017279542  0.022652584            0 0.00030814841  0.031613506   0.05426609  0.040213451 
  176000  0.020173606 0.00030321608  0.020462481            0 0.00030292915  0.030254713  0.050717194  0.075376333 
  184000  0.018650441 -0.00030755707  0.025115991 4.2256065e-06 0.00030490654  0.027970395  0.053086386  0.028074215 
  192000  0.017819244 0.00016492045  0.021610294            0 0.00030878213  0.026723835  0.048334129  0.061746334 
  200000  0.019053251 -0.00045220004  0.024599242 2.0153587e-06 0.00030639051  0.028574496  0.053173738  0.016398433 
  208000  0.016483937 -0.00020360522  0.021634201            0 0.0003022375   0.02472125  0.046355451  0.029797195 
  216000  0.020153651 -0.00031590368  0.020232014            0 0.00029656645  0.030224786  0.050456799  0.024765837 
  224000  0.020539157 0.00050493122  0.023727005            0 0.00030698945  0.030802935   0.05452994  0.095593624 
  232000  0.018131116 -0.00028810351  0.022883041            0 0.00029836153  0.027191554  0.050074595   0.02664449 
  240000  0.019883721 0.0002356207  0.022146362            0 0.00030238121  0.029819967  0.051966329  0.071128253 
  248000  0.019846236 -0.00070484886  0.024883915 9.4712324e-06 0.0002945996   0.02976375  0.054647665 -0.0026743814 
  256000  0.016902613 0.00031678063  0.025949003            0 0.00030614046  0.025349147  0.051298149  0.077060429 
  264000  0.017947108 -0.00053229381  0.020338381            0 0.00029353539  0.026915594  0.047253975 0.0039650201 
  272000  0.020561632 -3.4649561e-05   0.01973866            0 0.00029828837  0.030836642  0.050575302  0.047757416 
  280000  0.021112376 -0.00016538928  0.021571492            0 0.00029755701  0.031662602  0.053234093   0.03978376 
  288000  0.016748387 0.00058522462  0.021301845            0 0.00030605397  0.025117851  0.046419696  0.094013265 
  296000  0.019829535 -0.00047388871  0.022733825            0 0.0002938454  0.029738704  0.052472529  0.013933387 
  304000  0.018343347 -0.00064342184  0.024709205            0 0.00029411409  0.027509841  0.052219046 -0.00010742918 
  312000  0.020440415 0.00040835654   0.02120546 0.00019330455 0.00030198202  0.030654851  0.051860311  0.085070029 
  320000  0.014816486 -0.00065707566  0.018220615            0 0.00029342229  0.022220545   0.04044116 -0.012995716 
  328000  0.017843753 0.00015998776  0.021258993            0 0.00030237401  0.026760591  0.048019585  0.061030638 
  336000  0.019008579 0.00019640418  0.019097486 7.3695082e-05 0.00030098396  0.028507501  0.047604987  0.063577616 
  344000  0.019828896 0.00059586615  0.024088687 8.2286537e-05 0.00030565505  0.029737744  0.053826431   0.10228543 
  352000  0.020631582 -0.00041611345  0.019624542            0 0.00029378326  0.030941547  0.050566089  0.016725537 
  360000  0.022486681 0.00021564312  0.018781515            0 0.00030032794  0.033723671  0.052505186  0.070042428 
  368000      0.01939 0.00029610978  0.020453945            0 0.0003009971  0.029079524  0.049533469  0.073614686 
  376000  0.020806007 6.5647264e-05   0.02268936            0 0.00030087701  0.031203136  0.053892496  0.059231279 
  384000  0.018551961  0.001362844  0.022061305            0 0.00031336482  0.027822703  0.049884008    0.1607177 
  392000  0.019267623 -0.00072625893  0.021524467            0 0.00029122876  0.028895994   0.05042046 -0.0086427655 
  400000  0.020455752 0.00047534754  0.020836174            0 0.00030257683  0.030677852  0.051514027  0.090171808 
  408000  0.017057956 -0.00090612572  0.024224923            0 0.00029116222  0.025582117   0.04980704 -0.023883908 
  416000  0.017259143 -0.00036972983  0.018563219            0 0.00029465484  0.025883841   0.04444706  0.014378671 
  424000  0.016381746 -2.502916e-05  0.021040528            0 0.00029892493  0.024567993  0.045608521  0.043573017 
  432000  0.018894547 5.8086181e-05  0.018895902            0 0.00029825267  0.028336485  0.047232387  0.051956263 
  440000    0.0187943 -1.3616282e-05  0.021658082            0 0.00029984849  0.028186143  0.049844224  0.048736876 
  448000  0.018199303 -6.9601512e-05  0.020970504            0 0.00029881062  0.027293816   0.04826432  0.042603956 
  456000  0.016208101 -0.00015601349   0.02020927            0  0.000297123  0.024307574  0.044516844  0.031828999 
  464000  0.018528908 -0.00074654698   0.02076633            0 0.00029168594  0.027788129   0.04855446 -0.012158699 
  472000  0.019933484 -4.5818623e-05  0.025160709            0 0.00030049057  0.029894597  0.055055306  0.051329093 
  480000   0.01649237 -0.00016409378  0.020438684            0 0.00029741766  0.024733898  0.045172582  0.031827605 
  488000  0.019972051 -0.00020338982  0.017329259            0 0.00029531361  0.029952436  0.047281696  0.030740958 
  496000  0.020619543 0.00084625493  0.018960405 0.00010963981 0.00030574395  0.030923492  0.049883897   0.11870583 
  504000  0.020855719 4.5088141e-05  0.019006863            0 0.00029816413  0.031277689  0.050284552  0.053951358 
  512000  0.016532169 -0.00022007282  0.022180941            0 0.00029711901  0.024793585  0.046974525  0.029077037 
  520000  0.019328604 0.00049778959  0.018105688            0 0.00030202287  0.028987447  0.047093135  0.087576023 
  528000  0.019219108 -0.00021476527  0.018556665 2.3329121e-05 0.00029593503  0.028823235    0.0473799   0.02991405 
  536000  0.017683373 -0.00027245258  0.020721807 8.9300611e-06 0.00029558235  0.026520066  0.047241873  0.025084585 
  544000  0.019665028 0.00019951634  0.023436519            0 0.00030115802  0.029491988  0.052928508  0.069154235 
  552000  0.016715644 -0.00021371907   0.02225771 3.8632912e-06 0.00029758593  0.025068746  0.047326456  0.029945688 
  560000  0.018552018 0.00013785838  0.023560949            0 0.00030182966  0.027822789  0.051383737  0.062595112 
  568000  0.018627632 0.00054719215  0.022292383            0 0.00030391712  0.027936188  0.050228571  0.094729138 
  576000   0.01775433 0.0011501678  0.022690132            0 0.00031087793  0.026626482  0.049316614   0.14285436 
  584000  0.015760944 -0.00071114453  0.019627123            0 0.00029151857  0.023636965  0.043264089 -0.014569955 
  592000  0.017905398 -6.8586488e-05  0.023022491            0 0.00030020194  0.026853041  0.049875532  0.044297715 
  600000  0.018448549 -3.4870288e-05  0.020007659            0 0.00030194576  0.027667615  0.047675274  0.044839437 
  608000  0.018706017 -0.0011317552   0.02228695            0 0.00028786786  0.028053743  0.050340693 -0.041699641 
  616000  0.016979888 -6.3451322e-05  0.020168061            0 0.00029866902  0.025465037  0.045633098    0.0404729 
  624000  0.019112242 -0.00035327127  0.019201551            0 0.00029452955  0.028662966  0.047864518  0.019134626 
  632000  0.020716461 7.3958308e-05  0.018499764            0 0.0002979953  0.031068842  0.049568605  0.055583287 
  640000  0.016690664 5.5417655e-05   0.02179241            0 0.0003008173  0.025031283  0.046823693  0.051330551 
  648000  0.018438519 -0.00015574365  0.019525044            0 0.0002964668  0.027652571  0.047177616  0.034511717 
  656000   0.01993477 9.2544552e-05  0.018411614            0 0.00029786925  0.029896526   0.04830814  0.055834354 
  664000   0.01670709 -0.0003895706  0.019602691            0 0.0002952258  0.025055917  0.044658608  0.012976661 
  672000  0.016993098 8.3049327e-05   0.02033792            0 0.00030013485  0.025484848  0.045822768   0.05257678 
  680000  0.018882853 0.00039097186  0.021033413            0 0.00030215889  0.028318947   0.04935236  0.081148264 
  688000   0.01773775 -0.00037752177  0.021650998            0 0.00029526669  0.026601616  0.048252614  0.017550542 
  696000  0.019724088 -0.00011630089   0.01953327            0 0.00029684963  0.029580562  0.049113832  0.039655627 
  704000  0.018763845 -0.00015540517   0.02002389            0 0.00029710763  0.028140468  0.048164358  0.035525986 
  712000  0.021345744 0.00030518676  0.021876635            0 0.00030224347  0.032012589  0.053889224  0.078708629 
  720000  0.018318054 -0.00029806679  0.021439563            0 0.00030078935  0.027471909  0.048911472    0.0246711 
  728000   0.01451104 -0.0002081369  0.020474916            0 0.00029950435  0.021762462  0.042237379  0.025310583 
  736000  0.020309005 -0.00040720922  0.018346961            0 0.00029299657  0.030457772  0.048804733   0.01568832 
  744000  0.017140464 0.00018880123  0.023548508            0 0.00030304753  0.025705857  0.049254365  0.064608682 
  752000  0.017302995 -0.00024688569  0.021549792            0 0.00029565823  0.025949607  0.047499399  0.027421345 
  760000  0.019103602 0.00011574284  0.021304872            0 0.0003003043  0.028650008   0.04995488  0.059367702 
  768000  0.020181211 -0.00012871752  0.021311493            0 0.00029810942  0.030266118  0.051577611   0.04110962 
  776000  0.017903512 -0.00066389512   0.01964732            0 0.00029260963  0.026850213  0.046497533 -0.007493938 
  784000    0.0197277 -8.688469e-05  0.018145283            0 0.00029747552  0.029585979  0.047731262  0.040665339 
  792000  0.016912578 1.1844241e-05  0.018006833            0 0.00029856217  0.025364091  0.043370923   0.04433416 
  800000  0.016005893 0.0010332169  0.020656157            0 0.00031449663  0.024004321  0.044660477   0.12868715 
Loop time of 195.889 on 1 procs for 800000 steps with 5312 atoms

Performance: 70570.509 tau/day, 4083.942 timesteps/s
99.9% CPU use with 1 MPI tasks x 1 OpenMP threads

MPI task timing breakdown:
Section |  min time  |  avg time  |  max time  |%varavg| %total
---------------------------------------------------------------
Pair    | 81.3       | 81.3       | 81.3       |   0.0 | 41.50
Bond    | 13.167     | 13.167     | 13.167     |   0.0 |  6.72
Neigh   | 18.708     | 18.708     | 18.708     |   0.0 |  9.55
Comm    | 8.8693     | 8.8693     | 8.8693     |   0.0 |  4.53
Output  | 0.010396   | 0.010396   | 0.010396   |   0.0 |  0.01
Modify  | 46.619     | 46.619     | 46.619     |   0.0 | 23.80
Other   |            | 27.21      |            |       | 13.89

Nlocal:    5312 ave 5312 max 5312 min
Histogram: 1 0 0 0 0 0 0 0 0 0
Nghost:    1040 ave 1040 max 1040 min
Histogram: 1 0 0 0 0 0 0 0 0 0
Neighs:    643 ave 643 max 643 min
Histogram: 1 0 0 0 0 0 0 0 0 0

Total # of neighbors = 643
Ave neighs/atom = 0.121047
Ave special neighs/atom = 0.0741717
Neighbor list builds = 2887
Dangerous builds = 0
Setting up Verlet run ...
  Unit style    : lj
  Current step  : 800000
  Time step     : 0.002
Per MPI rank memory allocation (min/avg/max) = 7.095 | 7.095 | 7.095 Mbytes
Step Temp Press PotEng E_vdwl E_coul KinEng TotEng Enthalpy 
  800000  0.016005893 0.0010332169  0.020656157            0 0.00031449663  0.024004321  0.044660477   0.12868715 
  808000  0.018484726 5.1863782e-05  0.023395405            0 0.0003013232   0.02772187  0.051117275  0.055335113 
  816000  0.019721675 9.656084e-05  0.022141802 9.5540069e-06 0.00030022491  0.029576944  0.051718745  0.059571585 
  824000  0.017069762 0.00036032761  0.018888195            0 0.00030422316  0.025599823  0.044488018  0.073791769 
  832000  0.017977839 0.00071703538  0.021570269 6.1557426e-06 0.00030719193  0.026961682  0.048531951   0.10684507 
  840000    0.0186518 -0.00047655794  0.023867688            0 0.00029851647  0.027972434  0.051840122  0.013083904 
  848000  0.019379821 0.00041397316  0.020358901            0 0.00030205394  0.029064259   0.04942316  0.083089652 
  856000  0.020701767 0.00022196528  0.022389532            0 0.00030275468  0.031046805  0.053436337  0.071487731 
  864000   0.01703123 -0.0010808934  0.022768127            0 0.00028882069  0.025542035  0.048310162 -0.039593817 
  872000   0.01809932 0.00055556226   0.02151157            0 0.00030443125  0.027143869  0.048655439  0.093836707 
  880000  0.020039451 0.00047519669  0.018327944 3.8855228e-06 0.00030156654  0.030053518  0.048381462  0.087026976 
  888000   0.01910467 -0.00014763948  0.019007978            0 0.00029594213   0.02865161  0.047659588  0.035652763 
  896000  0.016430048  0.000263892  0.019255082            0 0.00030000456  0.024640432  0.043895514  0.065356611 
  904000  0.019862629 3.9686383e-05  0.023208852            0 0.00029991648  0.029788335  0.052997187  0.056224695 
  912000  0.017916537 3.4878636e-05  0.023979629 2.4934883e-05 0.00030116094  0.026869746  0.050849375   0.05368589 
  920000  0.018236054 -0.00025328736  0.024597722            0 0.00029843742  0.027348932  0.051946654  0.031347983 
  928000  0.021406234 -5.0291697e-05  0.020127207            0 0.00029712511  0.032103306  0.052230513  0.048140525 
  936000  0.016123843 -0.00025560463  0.020737926            0 0.00029589437  0.024181211  0.044919137  0.024132014 
  944000  0.020812033 -0.0007852297  0.022993379            0 0.00029153747  0.031212172  0.054205551 -0.0096534908 
  952000  0.021648454 0.00010708077  0.019210044            0 0.00029835736  0.032466568  0.051676612  0.060384988 
  960000   0.01895619 -0.00032395899  0.019645657 2.9901898e-05 0.00029387274  0.028428932  0.048074589  0.021728526 
  968000  0.018044106 -0.00076600451  0.023707997            0 0.00029309075  0.027061064  0.050769061 -0.011526486 
  976000  0.017804025 0.00098315325  0.015124878            0 0.00030529063   0.02670101  0.041825889   0.12178112 
  984000  0.018264468 -8.2873129e-06  0.021846838            0 0.00030064037  0.027391545  0.049238383  0.048564415 
  992000  0.016567528 -2.1399955e-05  0.019466048 3.6893128e-05 0.00029818357  0.024846613  0.044312661  0.042572304 
 1000000  0.019825586 -0.00041452908  0.021325633 0.00016674708 0.00029535167   0.02973278  0.051058413  0.017346711 
 1008000  0.021433157 -1.7634905e-05  0.021353826 9.3391466e-05 0.00029817127  0.032143683  0.053497509  0.052063345 
 1016000  0.018301579 -0.00017479554   0.02311917            0 0.00029967047    0.0274472   0.05056637   0.03635107 
 1024000  0.019408115 -0.00021047083  0.020986969            0 0.00029660765  0.029106692  0.050093661  0.032977057 
 1032000  0.019996292 0.00044490528  0.021831306            0 0.00030318071  0.029988792  0.051820098  0.088002154 
 1040000   0.01622172 0.00034997534  0.020999515            0 0.00030282104  0.024327999  0.045327514  0.073789363 
 1048000  0.017702465 0.00027420157  0.021224303 4.9022909e-05 0.00030285695  0.026548698  0.047773001  0.070072527 
 1056000  0.015586285 -0.00062468651   0.01977106 5.8405772e-05 0.00029244948  0.023375026  0.043146086 -0.0076567323 
 1064000  0.020087593 -1.7267156e-05  0.020239491 7.1769136e-06 0.00029730868  0.030125717  0.050365209  0.048960952 
 1072000  0.019880679 -0.00012500534  0.021803029            0 0.00029888392  0.029815405  0.051618434  0.041452337 
 1080000  0.018421217 -0.00027937894  0.017469943 0.00033292623 0.00029801806  0.027626623  0.045096566   0.02237599 
 1088000  0.017672693 0.00014998963  0.020094948 8.4169132e-06 0.00030964227  0.026504049  0.046598997  0.058796949 
 1096000  0.018236856 0.00028603719  0.018814843            0 0.00030112546  0.027350135  0.046164978  0.069427038 
 1104000  0.019882271 5.8714875e-05   0.02272031 2.8108794e-05 0.00029884864  0.029817792  0.052538101  0.057313106 
 1112000  0.017706848 -0.00099181011  0.018795336            0 0.00028782941  0.026555273  0.045350608 -0.035308647 
 1120000  0.020137094 0.00029410489  0.022241787 0.00034103682 0.00031945916  0.030199955  0.052441743  0.076359911 
 1128000  0.018081819 0.00038886232   0.01990784            0 0.00030207201  0.027117623  0.047025463  0.078649808 
 1136000  0.018137479 9.9611267e-05  0.021910559 1.0408277e-07 0.00030011823  0.027201096  0.049111656  0.057212572 
 1144000  0.020423376 0.00027469564  0.020471727 9.961083e-05 0.00030105317  0.030629298  0.051101025   0.07344073 
 1152000  0.022138241 -0.00033186181   0.01830615 4.7149416e-05 0.00029387242   0.03320111   0.05150726  0.024518499 
 1160000  0.019446065 2.585867e-05  0.019208386            0 0.00029861943  0.029163607  0.048371992  0.050474956 
 1168000  0.017763154 -0.0003995948  0.021132845            0 0.00029471034  0.026639715   0.04777256  0.015275393 
 1176000  0.019208358 -0.00017934467  0.019484721            0 0.00029675353  0.028807113  0.048291833  0.033706574 
 1184000  0.016847744 -0.00064101297  0.019789952            0 0.00029181051  0.025266859  0.045056811 -0.0070737615 
 1192000  0.018888724 0.00020660068  0.021469897            0 0.00030066346  0.028327752  0.049797649  0.066599511 
 1200000  0.020485087 0.00052133945  0.019848987            0 0.00030272205  0.030721846  0.050570833  0.092968921 
 1208000   0.01796783 0.00045821267  0.020350126            0 0.00030324061  0.026946671  0.047296796   0.08456108 
 1216000  0.019475266 0.00049896149  0.019217051            0 0.00030389452  0.029207399   0.04842445  0.089002644 
 1224000  0.018211855 0.0001500214   0.02248948            0 0.00029946695  0.027312639  0.049802119  0.062002655 
 1232000   0.01648159 -0.0003185065  0.020477595            0 0.00029720424  0.024717731  0.045195326  0.019292689 
 1240000  0.017750858 0.00022292837  0.020133841            0 0.00030031579  0.026621275  0.046755116  0.064884833 
 1248000  0.018935206 0.00063131134  0.022798491            0 0.00030654494  0.028397462  0.051195953   0.10253754 
 1256000  0.016691709 0.00049532312  0.020339127            0 0.00030404294  0.025032849  0.045371977  0.085654278 
 1264000   0.01809468 -0.00030373291  0.021405777            0 0.00029597141   0.02713691  0.048542687  0.023841516 
 1272000   0.01583518 0.00012531937  0.022438029            0 0.00030170797  0.023748298  0.046186327  0.056377962 
 1280000  0.019732051 -0.00030906041  0.018949553            0 0.00029412019  0.029592505  0.048542058  0.023407628 
 1288000  0.018458275 0.00034064931   0.02140235            0 0.00030260647  0.027682201  0.049084551  0.076787959 
 1296000  0.018318814 -0.00014026037  0.023059331 0.00028244377 0.0003047273  0.027473048  0.050532379  0.039125662 
 1304000  0.019267407 9.2318776e-05  0.020050321 0.00023822721 0.00030116039  0.028895669  0.048945991  0.056453843 
 1312000  0.016653824 8.3305057e-05  0.021598899            0 0.00030467778  0.024976033  0.046574933  0.053349742 
 1320000  0.019798832 -6.5805915e-05  0.024063565            0 0.00029984146  0.029692658  0.053756222  0.048404537 
 1328000  0.019505773 0.00012403723  0.018336907            0 0.00029857189  0.029253152  0.047590059  0.057677424 
 1336000  0.019370109 0.00032807925   0.02215016            0 0.00030267895  0.029049694  0.051199854  0.077880998 
 1344000  0.017195913 -4.6082713e-05  0.022625638 4.4473216e-05 0.00029857473  0.025789014  0.048414652  0.044666961 
 1352000  0.019753856 0.00052874014  0.020176988            0 0.00030340828  0.029625205  0.049802194  0.092802144 
 1360000  0.020298201 -4.7337117e-06  0.020904293 0.00030885134 0.00029735607   0.03044157  0.051345863  0.050960892 
 1368000  0.018837611 -0.00025520403  0.020854956            0 0.00029604144  0.028251096  0.049106053  0.028351508 
 1376000  0.018206113 -0.00018784989    0.0227823 2.5286173e-07 0.00029724587  0.027304029  0.050086329   0.03480938 
 1384000  0.018436261 0.00011783432  0.018011343 0.00022586836 0.00029823137  0.027649186  0.045660528   0.05524344 
 1392000  0.017974583 0.00041015897  0.019185385            0 0.00030118758  0.026956798  0.046142184  0.079498486 
 1400000  0.020994688 -0.00053422758  0.018942232 5.9010562e-05 0.00029237405  0.031486103  0.050428335  0.006982116 
 1408000  0.017856072 2.4740791e-05  0.019026261            0 0.00029720348  0.026779065  0.045805327  0.047817379 
 1416000  0.019464194 -0.00010020419  0.020973401 0.00014988645 0.00029714788  0.029190794  0.050164195   0.04201506 
 1424000  0.019616038 0.00010951294  0.019443545            0 0.00029797801  0.029418518  0.048862063  0.057768236 
 1432000  0.017785296 -4.4685951e-05   0.02025754            0 0.00029820528  0.026672921  0.046930462  0.043296363 
 1440000  0.021388436 -0.00040227737  0.023215919            0 0.0002934743  0.032076614  0.055292534  0.022577205 
 1448000  0.019217618 -0.00022761622  0.019802902 2.8388135e-05 0.00029509347  0.028821001  0.048623903  0.030112946 
 1456000  0.019066472 -0.00054488162  0.018723532            0 0.00029227488  0.028594325  0.047317857 0.0030051953 
 1464000  0.018605317 -0.00063916612  0.018407838            0 0.0002903492  0.027902721  0.046310559 -0.0056698179 
 1472000   0.01911226 -0.00050914508  0.021142296 0.00056003305 0.00029201468  0.028662993  0.049805289 0.0083989125 
 1480000  0.020387216 6.918437e-06  0.018499128            0  0.000297971  0.030575067  0.049074195  0.049636839 
 1488000  0.017795376 -0.00023048086   0.01950791            0 0.00029377152  0.026688039  0.046195949  0.027452023 
 1496000  0.016887871 -0.00033793046  0.019351292            0 0.00029339616  0.025327038   0.04467833  0.017196034 
 1504000  0.018514449 0.00046807066  0.023571397            0 0.00030483561  0.027766445  0.051337842   0.08940383 
 1512000   0.01787501 0.00051622183   0.01785025 2.819862e-05 0.00030281219  0.026807468  0.044657718  0.086639614 
 1520000   0.01745923 -0.0001561186  0.020196615 3.1499909e-07 0.00029663239  0.026183914  0.046380529  0.033684137 
 1528000  0.018154494 0.00017862025  0.021965474 0.00035995738 0.00029985344  0.027226615  0.049192089  0.063718435 
 1536000  0.018844539 8.1549709e-05  0.021858074 6.8727547e-05 0.00029945656  0.028261487  0.050119561  0.056751616 
 1544000  0.019848855 -0.00026167018   0.02177027 1.3125514e-05 0.00029600674  0.029767678  0.051537948  0.030257542 
 1552000  0.019607349 -3.2707464e-05   0.01968269 7.2312164e-05 0.00029725787  0.029405487  0.049088177  0.046428233 
 1560000  0.017424894 0.00093086904  0.021157961            0 0.00030877674   0.02613242  0.047290381   0.12299359 
 1568000   0.01765002 0.00014992684  0.019430852            0 0.00030134576  0.026470046  0.045900897  0.058093743 
 1576000  0.020721397 0.00031023363  0.018670082            0 0.00030015876  0.031076244  0.049746326  0.074976169 
 1584000  0.017182947 -0.00060297683  0.018348059            0 0.00029202899  0.025769568  0.044117628 -0.0049196449 
 1592000  0.018253924 0.00017912112  0.019935018            0 0.00030044047  0.027375731  0.047310749  0.061877829 
 1600000   0.02094577 0.00046433596  0.017219947            0 0.00030112968   0.03141274  0.048632688   0.08639495 
 1608000  0.014982458 0.00050301281  0.020037199            0 0.00030328277  0.022469456  0.042506654  0.083414323 
 1616000  0.019921085 6.8285205e-05  0.022886681            0 0.00030046858  0.029876002  0.052762683  0.058315998 
 1624000  0.016585913 -0.00014466587  0.017650084            0 0.00029661904  0.024874187   0.04252427  0.030759275 
 1632000  0.016662049 0.00047819783  0.022912353            0 0.00030395612  0.024988369  0.047900722  0.086790305 
 1640000  0.018066489 0.00028563127  0.021109754            0 0.00030237188  0.027094632  0.048204386  0.071433435 
 1648000  0.019514885 -0.00052958581  0.021368803            0 0.00029319584  0.029266817   0.05063562 0.0075668944 
 1656000  0.021217029 -0.00028597725  0.018629582            0 0.00029512863  0.031819552  0.050449134  0.027191948 
 1664000  0.020291068 0.00030780375  0.018626194            0 0.00030018195  0.030430872  0.049057066  0.074089299 
 1672000  0.021057998 0.00056145793  0.019965963            0 0.00030337113  0.031581051  0.051547015   0.09720775 
 1680000   0.01786008 0.00015884354  0.019700221            0 0.00029831302  0.026785076  0.046485297  0.059403296 
 1688000  0.017108787 0.00061646437  0.021629569            0 0.00030503204  0.025658349  0.047287919  0.097422069 
 1696000  0.019282133 -0.00020323455  0.020142957            0 0.00029609399  0.028917755  0.049060712  0.032532601 
 1704000  0.021398324 -0.0004256702  0.017405518 7.4907196e-06 0.00029281863  0.032091444  0.049496962  0.014879205 
 1712000  0.019553397 -0.00060282476  0.017783827            0 0.00029108988  0.029324574  0.047108401 -0.0019165046 
 1720000  0.020992973 -8.9005247e-05  0.021482764            0 0.00029637237  0.031483532  0.052966295  0.045727917 
 1728000  0.020112402 -0.00011145983  0.017906067            0 0.00029667249  0.030162924  0.048068992  0.039004487 
 1736000  0.020870413 -0.00061868792  0.018997146            0 0.00029207287  0.031299726  0.050296872 -1.8109448e-05 
 1744000  0.017592043 -0.00068331268  0.022249118            0 0.00029246439  0.026383097  0.048632215 -0.0069383944 
 1752000  0.019170459 4.9689615e-05  0.018504607 0.00015195302 0.00029756271  0.028750276  0.047254883  0.051295906 
 1760000  0.017490583 0.00040194241  0.016988526            0 0.00030087602  0.026230935  0.043219462  0.075907549 
 1768000  0.020673309 0.00026597615   0.01733783            0 0.00029943482  0.031004126  0.048341956  0.069972547 
 1776000  0.018875782 0.00044038084  0.019043493            0 0.00030200952  0.028308342  0.047351835   0.08316594 
 1784000  0.017873549 -0.00086826873   0.02052221            0 0.00028867726  0.026805277  0.047327487 -0.023284729 
 1792000   0.01822989 -0.00046162973  0.020858049 2.0563336e-06 0.00029292453  0.027339688  0.048197737   0.01065556 
 1800000  0.019689508 -0.00031211422  0.019339195 0.00013532715 0.00029416123  0.029528703  0.048867898  0.023485115 
 1808000  0.016731901 -0.00022139127  0.020273818 2.2538107e-05 0.0002956709  0.025093127  0.045366945  0.027362234 
 1816000  0.021643312 -0.00079811996  0.020530875            0 0.00028941207  0.032458856  0.052989731 -0.011917615 
 1824000  0.018883386 -0.00087750769  0.021493568            0 0.00028944969  0.028319747  0.049813315 -0.021550262 
 1832000  0.017040685 -0.00011922274   0.02019085            0 0.0002955063  0.025556216  0.045747066  0.036051241 
 1840000  0.018045616 -0.00027062891  0.020776724            0 0.00029598029  0.027063328  0.047840052  0.025831075 
 1848000  0.020009449 -0.00024703178  0.017541286            0 0.00029450959  0.030008523  0.047549809  0.027459875 
 1856000  0.023210077 -0.00040846243  0.020189041 1.069019e-05 0.00029304082  0.034808562  0.054997603  0.021779274 
 1864000  0.019273154 -0.00022422305  0.015867441            0 0.00029254104  0.028904289   0.04477173  0.026536723 
 1872000  0.019881306 0.00059916065  0.019402221            0 0.00030376659  0.029816344  0.049218565  0.097945486 
 1880000  0.017863777 3.7195685e-05  0.020409366            0 0.00029901435  0.026790622  0.047199987  0.050224938 
 1888000  0.021153609 0.00053093229   0.02022125 0.00018148766 0.00030070238   0.03172444   0.05194569  0.095123919 
 1896000  0.019397263 0.00016273707  0.022180253 0.00032962593 0.00029913569  0.029090417   0.05127067  0.064505311 
 1904000  0.019946359 0.00022168882  0.019947524            0 0.00029912347  0.029913906   0.04986143  0.067890341 
 1912000   0.01884922 0.00023860793  0.019187606            0 0.0002996134  0.028268507  0.047456113  0.066860975 
 1920000  0.019595485 -0.00018843866  0.019514643            0 0.00029596089  0.029387694  0.048902337  0.033577506 
 1928000  0.018717923 -0.00070621598  0.020192194 1.9606712e-06 0.00029043514  0.028071599  0.048263793 -0.0091694348 
 1936000  0.018443508 -8.8145468e-05    0.0202414 1.0228237e-06 0.00029802005  0.027660054  0.047901454  0.040732997 
 1944000  0.020408973 -0.00012975143  0.018591054 4.8562496e-05 0.00029596879  0.030607696   0.04919875  0.038646676 
 1952000  0.018249592 -0.00017405337  0.020536361            0 0.0002956141  0.027369235  0.047905596  0.033750653 
 1960000  0.020031431 0.00025441184  0.013408623 2.7328699e-05 0.00029635979   0.03004149  0.043450113  0.064140233 
 1968000   0.01959718 0.00094550603  0.018466108            0 0.00030647458  0.029390237  0.047856345   0.12474991 
 1976000  0.019788525 -7.691585e-05  0.018823774            0 0.00029605597  0.029677199  0.048500974  0.042245769 
 1984000  0.018423156 -3.268386e-05  0.022227188            0 0.00029736187  0.027629532   0.04985672  0.047198695 
 1992000  0.019879494 -0.00031677558  0.019005187 1.0191543e-05 0.0002945736  0.029813628  0.048818815  0.023056945 
 2000000  0.016374396 -0.00031082098  0.016169722            0 0.00029313786  0.024556971  0.040726693  0.015449083 
 2008000  0.020655758 -0.00032917673  0.018349741            0 0.00029262731  0.030977804  0.049327545  0.022557148 
 2016000  0.020932599 2.4867149e-05  0.018943482            0 0.0002977192  0.031392987  0.050336469  0.052358798 
 2024000  0.015882906 0.00045167252  0.017582578            0 0.00030103346  0.023819874  0.041402452  0.078134855 
 2032000  0.020289391 2.8603629e-05  0.018647641            0 0.00029705626  0.030428357  0.049075998  0.051402197 
 2040000  0.016790203 -0.00081159258  0.019825053 1.5889806e-07 0.00028794453  0.025180563  0.045005616 -0.020997395 
 2048000   0.01929833 -0.00057315687  0.022667107            0 0.00029341518  0.028942046  0.051609153 0.0049969974 
 2056000  0.015384759 2.4432351e-05  0.018488474            0 0.00029772888  0.023072794  0.041561268  0.043548236 
 2064000  0.018475805 -0.00029428387   0.02145492            0 0.00029578148   0.02770849  0.049163409  0.025230685 
 2072000  0.018474198 -0.00050433101  0.019179824            0 0.00029262945  0.027706081  0.046885904 0.0058710333 
 2080000  0.018814145 0.00039502536  0.020938166            0 0.00030155023  0.028215904   0.04915407  0.081279626 
 2088000  0.017355676 0.00016641814   0.02141004            0 0.00029962602  0.026028614  0.047438654  0.060972659 
 2096000  0.020185271 0.00024897306  0.021172371            0 0.00030160469  0.030272207  0.051444577  0.071692387 
 2104000   0.01656127 -1.2707206e-05  0.019925803            0 0.00029684293  0.024837229  0.044763032  0.043729615 
 2112000  0.018177843 1.2245115e-05  0.020644847            0 0.00029779002  0.027261632  0.047906479  0.048902317 
 2120000  0.017827241 6.1644186e-05  0.018450617            0 0.00029891414  0.026735828  0.045186445  0.050199677 
 2128000  0.016884322 -0.000482199  0.020121566            0 0.00029230769  0.025321715  0.045443281 0.0062283021 
 2136000  0.018051712 -0.00028888401  0.021262332            0 0.00029526586   0.02707247  0.048334802  0.024841223 
 2144000  0.022189053 9.2780447e-05  0.019634738 2.3240055e-05 0.0002988159  0.033277314  0.052912052  0.060457449 
 2152000  0.017834303 -0.00016471821  0.018018124            0 0.00029521493  0.026746418  0.044764543  0.031368784 
 2160000  0.017824549 0.00042536775  0.019027224            0 0.00030073903   0.02673179  0.045759014  0.080352174 
 2168000  0.019177008 0.00045394773  0.022109181            0 0.00030376435  0.028760097  0.050869278  0.087786714 
 2176000  0.018890677 0.00010921477  0.021262501            0 0.00029832202  0.028330681  0.049593183  0.058475107 
 2184000   0.02128129 1.4807023e-05  0.019570899            0 0.00029848711  0.031915925  0.051486824  0.052691009 
 2192000  0.018657902 -0.00011296067  0.019378798            0 0.0002963918  0.027981584  0.047360381  0.038173821 
 2200000  0.020280595 -0.00019641496  0.019764843            0 0.00029478718  0.030415166  0.050180009  0.034206503 
 2208000  0.017911621 0.00041982107   0.01903864            0 0.00030091297  0.026862373  0.045901013  0.080043088 
 2216000  0.016785456 -4.8436842e-05  0.016373403            0 0.00029623772  0.025173444  0.041546847  0.037607706 
 2224000  0.017962801 -0.00010137046  0.017386347            0 0.0002954595  0.026939129  0.044325476  0.036081493 
 2232000  0.020426926 5.6858042e-05  0.021189681            0 0.00029826456  0.030634621  0.051824302    0.0564483 
 2240000  0.017592202 -7.2372249e-05  0.018644479            0 0.00029567717  0.026383335  0.045027814  0.039142119 
 2248000  0.019263215 -0.00036691072  0.018332824            0 0.00029304769  0.028889383  0.047222207  0.017383083 
 2256000  0.018369524 0.00024475285  0.019324747            0 0.00030052186  0.027549099  0.046873846  0.066778446 
 2264000  0.017976888 0.00043198646  0.019298352 0.00019381323 0.00030180869  0.026960255  0.046258608  0.081390037 
 2272000  0.019315773 -0.00071173085  0.019857589            0 0.00029001791  0.028968206  0.048825795 -0.0090559315 
 2280000  0.019946417 0.00011185622  0.022221095            0 0.0002989942  0.029913993  0.052135088  0.061231828 
 2288000  0.017285138 -0.00020903405  0.021919705 0.00018488533 0.0002957557  0.025922827  0.047842532  0.030842775 
 2296000  0.018639575 -0.00013031145  0.017860468 0.00021530629 0.00029542285  0.027954098  0.045814566  0.035216948 
 2304000  0.018317387 -0.00040298963  0.022294493            0 0.00029494919  0.027470908  0.049765401  0.016992147 
 2312000  0.017173791 -0.00015870189  0.019560882 4.0077839e-05 0.00029577836  0.025755838   0.04531672  0.032410241 
 2320000  0.017240431 0.0003897054  0.020287294            0 0.00030195049  0.025855778  0.046143072  0.077835981 
 2328000  0.016875802 -0.00073458806  0.018511193            0 0.00029026799  0.025308937  0.043820131 -0.015920465 
 2336000  0.019029968 -0.0005873457  0.018789793            0 0.00029115025  0.028539578  0.047329371 -0.00043669454 
 2344000  0.016964096 -0.00044026704  0.020232617            0 0.00029327948  0.025441353   0.04567397 0.0098691202 
 2352000  0.018021121 8.036889e-05  0.015101297            0 0.00029645159  0.027026593   0.04212789  0.048663914 
 2360000  0.019784742 4.7690414e-05  0.019724184            0 0.00029879507  0.029671526  0.049395711  0.053274148 
 2368000  0.020474586 0.00025842182  0.020096145            0 0.00030039198  0.030706098  0.050802243  0.071818475 
 2376000  0.016913606 -0.00037887883  0.018286931            0 0.00029325292  0.025365634  0.043652564   0.01284013 
 2384000  0.018069051 -0.00015947726  0.017924198            0 0.00029501137  0.027098474  0.045022672  0.032053136 
 2392000  0.018650953 -0.00013484991   0.02191356            0 0.00029794588  0.027971163  0.049884723  0.038918013 
 2400000  0.018151372 0.00038860911  0.020373962            0 0.00030223838  0.027221933  0.047595895  0.079199648 
 2408000  0.016266061 6.5591403e-05  0.023849117            0 0.00030076378  0.024394498  0.048243615  0.053577856 
 2416000  0.019144434 0.00025548903  0.017949786            0 0.00029970031  0.028711246  0.046661032  0.067438754 
 2424000  0.019231145 0.00026523697  0.017528433            0 0.00029696817  0.028841287   0.04636972  0.067940196 
 2432000  0.020237187 0.00046423204  0.019668316            0 0.00030320365  0.030350066  0.050018382  0.087772193 
 2440000  0.016719568 -0.00061521981  0.021364775            0 0.00029228794   0.02507463  0.046439405 -0.0035935313 
 2448000  0.019852326 0.00033495215  0.020766146            0 0.00030180208  0.029772883  0.050539029  0.077779114 
 2456000  0.023331176 -4.5055733e-06  0.017623385            0 0.00029630235  0.034990175   0.05261356  0.052247143 
 2464000  0.019756096 -0.000422314  0.020309961            0 0.00029307455  0.029628565  0.049938526  0.015593713 
 2472000  0.018129929 0.00041047128  0.018011045            0  0.000301182  0.027189773  0.045200818  0.078582518 
 2480000  0.020237242 0.00044536241  0.022658926            0  0.000304509  0.030350148  0.053009074  0.089228306 
 2488000   0.01490486 0.00095665993  0.017247626            0 0.00030609477  0.022353081  0.039600707   0.11740136 
 2496000  0.018052137 0.00068173005  0.015658462            0 0.00030734393  0.027073108   0.04273157  0.098173472 
 2504000  0.021004154 -0.00028786039   0.02439201            0 0.00029670927    0.0315003   0.05589231  0.032481976 
 2512000  0.021415621 7.9463432e-05  0.018296867            0 0.00029746978  0.032117384  0.050414251  0.056876639 
 2520000   0.01670946 -0.00024482967  0.016219915            0 0.00029405701  0.025059472  0.041279387  0.021368541 
 2528000  0.019110227 -0.00015464905  0.019331987            0 0.00029541496  0.028659944  0.047991932  0.035415051 
 2536000  0.020492531 -0.00026898415   0.01951391            0 0.00029532205   0.03073301   0.05024692  0.028371704 
 2544000  0.015887396 -0.00030384935  0.023161587            0 0.00029592171  0.023826607  0.046988194  0.022277553 
 2552000   0.01946019 -0.00045500793  0.018762538            0 0.00029200968   0.02918479  0.047947328  0.010943671 
 2560000  0.018824789 0.00049652887  0.018479278            0 0.0003031291  0.028231868  0.046711146  0.087091506 
 2568000   0.01913765 -0.00011371564  0.019850809            0 0.00029621984  0.028701072  0.048551881  0.039303922 
 2576000  0.018791727 0.00056921934  0.021342304 2.9814176e-05 0.00030330745  0.028182284  0.049524588  0.095816522 
 2584000  0.019348275 9.5163123e-05  0.019122995 1.1083779e-05 0.00029888399  0.029016949  0.048139944  0.055879114 
 2592000  0.018865379 0.00043460215  0.021701533            0 0.00030296386  0.028292741  0.049994274  0.085338425 
 2600000  0.017023784 1.4606313e-05   0.01766731            0 0.00029740448  0.025530868  0.043198178  0.044386041 
 2608000  0.018631109 -1.8456358e-05  0.017718091            0 0.00029703032  0.027941403  0.045659493  0.044158524 
 2616000  0.017918959 -0.0004217347  0.015692098            0 0.00029206272  0.026873379  0.042565477 0.0082677752 
 2624000  0.018779628 0.00031897454  0.021008771 5.5237045e-06 0.00030180369   0.02816414  0.049172911  0.075113612 
 2632000   0.01751568 0.00038969692  0.018701548            0 0.00030104253  0.026268575  0.044970122  0.076662342 
 2640000  0.015662134 0.00037070172  0.018709901            0 0.00030087705  0.023488778  0.042198679  0.072346108 
 2648000  0.019209339 2.9472316e-05  0.017651649            0 0.00029688875  0.028808583  0.046460233  0.048857078 
 2656000  0.018590024 -7.5694521e-06  0.024352036 4.4720057e-08 0.0003005639  0.027879786  0.052231822  0.051616234 
 2664000  0.019877898 0.00034038161  0.018158015            0 0.00030134475  0.029811233  0.047969248  0.075650885 
 2672000  0.017944081 -0.00054321745  0.023122981            0 0.00029271893  0.026911054  0.050034035 0.0058567122 
 2680000  0.016712088 -0.00050308863  0.020850366            0 0.00029322835  0.025063413  0.045913779 0.0049999448 
 2688000  0.016836907 0.00014548957  0.020220376 1.7550462e-06 0.00029829615  0.025250606  0.045470982  0.057302964 
 2696000   0.01942482 -0.00015940712  0.014594746            0 0.00029466615  0.029131745  0.043726491  0.030762659 
 2704000  0.017760143 0.00013864254  0.019836947            0 0.00029875233  0.026635199  0.046472146  0.057747292 
 2712000  0.017290532 8.4714491e-05  0.021261337            0 0.00029875879  0.025930916  0.047192253  0.054081685 
 2720000  0.018432412 2.1803823e-06  0.020973379            0 0.00029845854  0.027643414  0.048616792  0.048794113 
 2728000  0.017968453 8.8404752e-05  0.019545553            0  0.000297596  0.026947605  0.046493159  0.053682702 
 2736000  0.017295943 -0.00022744685  0.018031141            0 0.00029364782  0.025939031  0.043970172  0.025472988 
 2744000  0.018960001 8.0614477e-05  0.020357224            0 0.00029867449  0.028434648  0.048791872  0.055347869 
 2752000  0.019559022 0.00015642161  0.022685528            0 0.00030045022   0.02933301  0.052018539  0.064739574 
 2760000  0.019291027 0.0002839146  0.019417855            0 0.00030036307  0.028931093  0.048348948  0.071438388 
 2768000  0.016204812 -0.00024415826  0.018138083            0 0.00029518438  0.024302643  0.042440726  0.022584482 
 2776000  0.019697148 -7.1302555e-05  0.021376198 7.1564632e-07 0.00029776811   0.02954016  0.050916358  0.045117656 
 2784000  0.015759516 -0.00065257113  0.020796763            0 0.00029197956  0.023634824  0.044431587 -0.0086389563 
 2792000   0.01953217 -0.00071791821  0.017921726 5.4576195e-06 0.00028928241  0.029292739  0.047214466 -0.011170449 
 2800000  0.016745326 -0.00010166452  0.021175265            0 0.0002971168   0.02511326  0.046288525  0.038020628 
 2808000  0.020442501 0.00076569243  0.018426433 0.00019243093 0.00030382384  0.030657978  0.049084411   0.11135458 
 2816000   0.01845547 7.5268272e-06    0.0223492            0 0.0002986012  0.027677993  0.050027193  0.050639315 
 2824000  0.020946101 0.00031861505  0.019189104            0 0.00029941342  0.031413237  0.050602341  0.076513806 
 2832000  0.018949886 -4.5834302e-05  0.022302298 2.9818459e-06 0.00029863444  0.028419478  0.050721776  0.046994287 
 2840000  0.019175748 0.00019559738  0.021387237            0 0.00030072155  0.028758206  0.050145443  0.066052459 
 2848000   0.02091111 0.00028268292  0.022760655            0 0.00030150098  0.031360761  0.054121416   0.07711069 
 2856000  0.016974699 -0.00042126424  0.018181502            0 0.00029278979  0.025457255  0.043638756 0.0093793151 
 2864000   0.01791572 -0.00055057997  0.016378299 4.3083767e-06 0.00029019868   0.02686852   0.04324682 -0.0015292623 
 2872000  0.017157658 -0.00029517239  0.018113943            0 0.00029539351  0.025731642  0.043845584    0.0198406 
 2880000  0.017942656 2.491693e-05   0.01816317            0 0.00029675243  0.026908917  0.045072087  0.047098464 
 2888000  0.019061582 0.00028116583   0.02184699            0 0.00030155421   0.02858699  0.050433981  0.073299877 
 2896000  0.018720631 9.6966642e-05  0.017832619            0 0.00029704666   0.02807566  0.045908279  0.053794121 
 2904000  0.020239572 0.0005246212  0.020233218 0.0002934907 0.00030088962  0.030353643  0.050586861  0.093251839 
 2912000  0.017315618 0.00028300198  0.018286509 3.8280689e-06 0.00029959377  0.025968538  0.044255047  0.067270269 
 2920000  0.017577859 0.00011291363    0.0172669 9.1331747e-06 0.00029790038  0.026361826  0.043628725   0.05281146 
 2928000  0.019138296 0.00036990619  0.020326375            0 0.00030145196  0.028702039  0.049028415  0.079111147 
 2936000  0.018810259 -9.3512618e-05  0.019857189            0 0.00029563091  0.028210077  0.048067267  0.040462325 
 2944000  0.017785569 -0.0005942564   0.01889962            0 0.00029092739  0.026673331  0.045572951 -0.0027551295 
 2952000  0.018142666 -0.00010354731  0.021353172            0 0.00029822762  0.027208876  0.048562048  0.040141031 
 2960000  0.023117877 -0.00011372625  0.019605178 2.7813839e-05  0.000295506  0.034670288  0.054275465  0.045026644 
 2968000   0.02021507 -8.0996239e-05   0.02043735            0 0.00029770922  0.030316896  0.050754247  0.044167203 
 2976000  0.020320923 -0.00038640276  0.019581482            0 0.00029454262  0.030475646  0.050057128  0.018632808 
 2984000  0.018056421 -0.000242513  0.020739017 0.00043556585 0.00029594524  0.027079532  0.047818549  0.028096106 
 2992000  0.022918692 0.00012832057  0.021660281            0 0.00029910686  0.034371566  0.056031847  0.066467556 
 3000000  0.017094968 0.00020286204  0.016486479 1.5855246e-07 0.00029835789  0.025637625  0.042124104  0.058621921 
 3008000  0.018956506 -0.00017276134  0.019337735 3.7489203e-05 0.0002953925  0.028429406  0.047767141  0.033717273 
 3016000  0.018868363 0.00031786558  0.021395921            0 0.00030132412  0.028297216  0.049693137  0.075543651 
 3024000  0.018189058 2.5204831e-07  0.019156177            0 0.00029734601  0.027278451  0.046434629  0.046455127 
 3032000  0.019105638 -0.00026966617   0.02275607            0 0.00029720553  0.028653062  0.051409132  0.029478449 
 3040000  0.020433385 -2.324005e-05  0.020935447 7.065653e-07 0.00029785184  0.030644307  0.051579754   0.04968975 
 3048000  0.019625329 -0.00020019461  0.021073597            0 0.00029564728  0.029432452  0.050506049  0.034225162 
 3056000  0.019681388 -3.6600086e-05  0.019938581            0 0.00029694547  0.029516525  0.049455105  0.046478592 
 3064000  0.019051309 -4.929933e-05  0.014795251 0.0001023805 0.0002947117  0.028571584  0.043366835  0.039357552 
 3072000  0.019342754 0.00079385979  0.017158161            0 0.00030451306  0.029008669  0.046166831   0.11072772 
 3080000  0.018748283 -0.0007507207  0.020855262 2.2323136e-06 0.0002902738   0.02811713  0.048972392 -0.012080195 
 3088000  0.021120198 0.00024796707  0.017718465            0 0.00029760056  0.031674334  0.049392799  0.069558796 
 3096000  0.017781165 0.0011042499  0.021796605            0 0.00030995365  0.026666727  0.048463332   0.13826679 
 3104000  0.018002701 -0.00011691768  0.018929836            0 0.00029575537  0.026998969  0.045928805  0.036420439 
 3112000  0.016628507 0.00042071036  0.019767684            0 0.00030276425  0.024938065   0.04470575  0.078920146 
 3120000  0.016600658 0.0003205334  0.018952276            0 0.00030020433    0.0248963  0.043848576  0.069916051 
 3128000  0.020897637 -0.00047346237  0.019479384            0 0.00029333747  0.031340554  0.050819938  0.012315468 
 3136000  0.016408047 0.00058264554  0.018172018            0 0.0003037533  0.024607437  0.042779455  0.090163279 
 3144000  0.019267092 9.6346127e-05  0.017604931            0 0.00029769297  0.028895197  0.046500128  0.054335506 
 3152000  0.021857419 0.00084967952   0.02196601            0 0.00030713835  0.032779957  0.054745966   0.12384641 
 3160000  0.018810482 3.2037644e-05  0.022182155            0 0.00029839921  0.028210412  0.050392567  0.052998038 
 3168000  0.020050508 0.00028359404  0.019029047 2.4641232e-05 0.00030051161    0.0300701  0.049099147  0.072162518 
 3176000  0.017475629 0.00079904869  0.016526911            0 0.00030515608  0.026208508   0.04273542   0.10771829 
 3184000  0.022090035 0.00073271764  0.017782012            0 0.00030269374  0.033128815  0.050910828   0.11049931 
 3192000  0.020064104 -7.8025567e-06   0.01946027 3.6827058e-06 0.00029718921  0.030090491   0.04955076  0.048916215 
 3200000  0.021504024 -0.00015959461  0.018817348            0 0.00029584206  0.032249963  0.051067311  0.038088231 
 3208000  0.018621108 -0.0003585271  0.019870128 1.4014354e-05 0.00029368351  0.027926404  0.047796532  0.018639208 
 3216000  0.018207114 9.4288021e-05  0.017220272 1.473747e-07 0.0002987385   0.02730553  0.044525802  0.052193803 
 3224000  0.018677324 -0.00015439903  0.020566781            0 0.00029563771  0.028010712  0.048577492  0.036020945 
 3232000  0.019683332 0.00013336035  0.017875752            0 0.00029777698   0.02951944  0.047395192  0.058240763 
 3240000  0.020151628 -9.7820184e-05  0.020008268            0 0.00029722921  0.030221751  0.050230019  0.042274763 
 3248000  0.020012527 4.4382483e-05  0.019042131            0 0.00029906769  0.030013139   0.04905527  0.052664689 
 3256000   0.01887267 0.0002717148  0.021456128            0 0.00029956915  0.028303676  0.049759803  0.071857091 
 3264000  0.020616384 0.00066051825  0.016733099            0 0.00030308785  0.030918755  0.047651854    0.1013687 
 3272000  0.019703259 -0.00036666896  0.020780538            0 0.00029416816  0.029549325  0.050329863    0.0205104 
 3280000  0.017676471 3.5064413e-05  0.018317205            0 0.00029746122  0.026509715   0.04482692  0.047678544 
 3288000  0.020851296 -2.166971e-06  0.019280698            0 0.00029689063  0.031271056  0.050551753  0.050375524 
 3296000  0.014842834 8.4290907e-05  0.021479482            0 0.0003001043  0.022260059  0.043739541  0.050594524 
 3304000  0.016576316 -0.00020572451  0.016253022            0 0.00029496598  0.024859793  0.041112815  0.024382207 
 3312000   0.01912278 -0.00095711808  0.022824182            0 0.00028962058  0.028678771  0.051502953 -0.026334963 
 3320000  0.017316809 -6.4057871e-05  0.016175786            0 0.00029543969  0.025970323  0.042146109  0.036936584 
 3328000  0.018888327 -0.0011131611  0.018983623            0 0.00028609442  0.028327157  0.047310779 -0.043217386 
 3336000  0.020631617 0.00085097907  0.018832191            0 0.00030579394    0.0309416   0.04977379   0.11897992 
 3344000  0.017852491 0.00014350117  0.020562973            0 0.00029918405  0.026773695  0.047336668  0.059006945 
 3352000  0.018679224 -0.00049657286  0.017994459            0 0.00029200051  0.028013561   0.04600802 0.0056240827 
 3360000  0.018610165 -5.2908083e-06  0.019561585 3.0293514e-06 0.00029748358  0.027909993  0.047471578  0.047041301 
 3368000  0.020755866 -0.00070098951  0.021684181  1.79554e-05 0.00029128334  0.031127938  0.052812119 -0.0041960635 
 3376000  0.018230562 -0.00043813124  0.019049477 8.2072655e-05 0.0002923417  0.027340695  0.046390172  0.010759017 
 3384000  0.020063093 -0.00021746856  0.020626508            0 0.00029607964  0.030088974  0.050715482  0.033029786 
 3392000  0.016272568 -0.00013633879  0.020103091 7.1955255e-06 0.00029768434  0.024404257  0.044507349  0.033419555 
 3400000  0.018865182 0.00057316268  0.020601375 6.282416e-05 0.00030354047  0.028292445  0.048893821  0.095506448 
 3408000  0.017910079 5.2606788e-05  0.019283157            0 0.00029848093  0.026860061  0.046143218  0.050421481 
 3416000  0.020529861 -0.0001539783  0.018661777            0 0.00029500538  0.030788994  0.049450771  0.036928439 
 3424000  0.022006439 -0.00034285519  0.023853219 0.0001477099 0.00029567163  0.033003444  0.056856663  0.028973861 
 3432000  0.019250327 -0.00044266541  0.020471167            0 0.00029449283  0.028870055  0.049341222  0.013341325 
 3440000  0.021490251 0.0003201652  0.019633628            0 0.00030015626  0.032229308  0.051862936  0.077900467 
 3448000  0.019925704 0.00024343876  0.016941518            0 0.00029899993  0.029882929  0.046824447  0.066622177 
 3456000  0.017522891 -0.00027425417  0.021328585 2.0985659e-05 0.00029638853  0.026279389  0.047607974  0.025304171 
 3464000  0.020609319 -0.0007691089  0.021655966 0.00013363781 0.00029052539  0.030908159  0.052564125 -0.0099838879 
 3472000  0.016308937 -0.00048279527  0.019257511            0 0.00029296369    0.0244588  0.043716312 0.0044528408 
 3480000  0.018856279 -0.0001565416  0.022503526            0 0.00029702129  0.028279095  0.050782621  0.038051828 
 3488000  0.019911518 0.00068311096  0.020802328            0 0.00030517278  0.029861654  0.050663982   0.10621819 
 3496000  0.016167492 0.00017374846  0.019677668            0 0.00030002502  0.024246672   0.04392434  0.058054486 
 3504000  0.020056965 -0.0004029346  0.017728851 0.00015078368 0.00029309708  0.030079784  0.047808635  0.015039857 
 3512000  0.018369993 -0.00014508228  0.018567898            0 0.0002962585  0.027549802    0.0461177  0.034318839 
 3520000   0.01732516 -0.00022909265  0.021879693            0 0.0002964615  0.025982848  0.047862541  0.029231513 
 3528000  0.020782732 0.0002216651  0.019333152 0.00020250287 0.00029826463   0.03116823  0.050501382  0.068528363 
 3536000  0.019621814 0.00034524343  0.018219333            0 0.00029966336   0.02942718  0.047646513  0.075723539 
 3544000   0.01838953 -0.00021048878   0.01860543            0 0.00029613818  0.027579102  0.046184532  0.029066468 
 3552000  0.017710911 0.00030754039  0.021294971            0 0.00030193026  0.026561365  0.047856337  0.072867152 
 3560000  0.021705548 0.0002052727  0.020276262            0 0.00029949122  0.032552193  0.052828455  0.069522319 
 3568000  0.017641209 0.00019473419  0.019640873 2.0822757e-07 0.00030031735  0.026456832  0.046097705  0.061934521 
 3576000  0.016881135 -3.3729629e-05  0.020920658            0 0.00029817483  0.025316935  0.046237593  0.043494521 
 3584000   0.02030464 0.00040797335  0.018517834            0 0.00030120941  0.030451227  0.048969061  0.082147616 
 3592000  0.016868104 9.2552068e-08  0.020378347            0 0.00029806556  0.025297392  0.045675739  0.045683266 
 3600000  0.019409628 -2.2969293e-05  0.018187404            0 0.00029602643  0.029108961  0.047296365  0.045428381 
 3608000  0.017169015 0.00020770677  0.016237728 9.9307062e-08 0.00029905099  0.025748674  0.041986402  0.058878217 
 3616000  0.017215193 -0.00028262152  0.020283278            0 0.00029479304  0.025817928  0.046101207  0.023116926 
 3624000  0.017659842 0.0001273392   0.02008807 2.5286077e-06 0.0002984518  0.026484776  0.046572847  0.056928746 
 3632000  0.018126054 0.00028474479  0.013728224 5.9764133e-05 0.0002964591  0.027183963  0.040912187  0.064069143 
 3640000  0.018038325 0.00035751029  0.018359402 1.1672532e-06 0.00030134911  0.027052394  0.045411796  0.074486428 
 3648000  0.018124415 0.00060269436  0.018956484            0 0.00030365641  0.027181504  0.046137988  0.095152288 
 3656000  0.019556928 0.00043782179  0.020932507            0 0.00030157279   0.02932987  0.050262377  0.085868366 
 3664000  0.019089564 1.6135705e-05  0.021289404 2.4339916e-06 0.00029697846  0.028628956   0.04991836  0.051230601 
 3672000  0.016568561 3.8593326e-06  0.018807278            0 0.00029806812  0.024848163  0.043655441  0.043969302 
 3680000   0.01994442 9.222616e-05   0.01588032 0.00014903448 0.00029633538  0.029910998  0.045791318  0.053291638 
 3688000  0.019455861 0.00060536439  0.017418611            0 0.00030281971  0.029178298  0.046596908  0.095828349 
 3696000   0.01817379 1.4281114e-05  0.020552449            0 0.00029770305  0.027255552  0.047808001  0.048969417 
 3704000  0.019053926 -0.00023799167   0.01984328 0.00014145518 0.00029348067  0.028575508  0.048418788  0.029064043 
 3712000  0.021226221 -4.8496307e-05   0.01654408            0 0.00029482164  0.031833337  0.048377417   0.04443344 
 3720000  0.018665025 -0.00053649561  0.022447133            0 0.00029283196  0.027992267    0.0504394 0.0068087323 
 3728000  0.016431707 -0.00036328215  0.018928675            0 0.0002948317   0.02464292  0.043571595  0.014027564 
 3736000  0.018688562 -6.3685418e-05  0.021820079            0  0.000298045  0.028027566  0.049847645   0.04466841 
 3744000  0.017729173 0.00037480001  0.020725381            0 0.00030146858  0.026588753  0.047314134  0.077794858 
 3752000  0.017888142 4.3096127e-05  0.016211695            0 0.00029677202  0.026827161  0.043038856  0.046543661 
 3760000   0.02031554 -0.00034610446  0.021192998            0 0.00029461142  0.030467573  0.051660571  0.023513522 
 3768000  0.019894888 -0.0004232096  0.020261999            0 0.00029317905  0.029836715  0.050098714  0.015681065 
 3776000  0.017794561 0.00051896359  0.017555009            0 0.00030270774  0.026686816  0.044241826  0.086446696 
 3784000  0.018344599 -0.00058213648  0.022998995            0 0.00029465674  0.027511719  0.050510714 0.0031682896 
 3792000  0.018936651 1.4973904e-05  0.020350771            0 0.0002980476  0.028399629    0.0487504  0.049968157 
 3800000  0.020803767 -0.00011277663  0.019673218            0 0.00029549829  0.031199775  0.050872993    0.0417014 
 3808000   0.01705964 -5.3401534e-05  0.019605347            0 0.00029697759  0.025584642  0.045189989  0.040847093 
 3816000  0.020101643 0.00010870551  0.021819021            0 0.00029967709  0.030146788  0.051965809  0.060806317 
 3824000  0.015194462 2.3580726e-05  0.022595269            0 0.0002988518  0.022787402   0.04538267   0.04730038 
 3832000  0.017214313 0.00066853101  0.020341892            0 0.00030469226  0.025816609  0.046158501   0.10052699 
 3840000  0.018844512 0.00063224133  0.013977473            0 0.00030707409  0.028261447   0.04223892  0.093656136 
 3848000  0.017933894  0.000560913  0.019649435            0 0.00030297128  0.026895777  0.046545212  0.092161631 
 3856000  0.017472347 -0.00045911314  0.018689219 0.00010205274 0.00029296055  0.026203587  0.044892806 0.0075552917 
 3864000  0.017910417 0.00048867689  0.020363991            0 0.00030189404  0.026860568  0.047224558  0.086966354 
 3872000  0.016842062 -6.498356e-07  0.017690593            0 0.00029665039  0.025258337   0.04294893  0.042896082 
 3880000  0.019111606 -0.00018664824  0.020389862 2.4564193e-06 0.0002963162  0.028662013  0.049051874   0.03387265 
 3888000  0.020052799 -0.00054951282   0.01705214            0 0.00029035661  0.030073536  0.047125676 0.0024363808 
 3896000  0.017823276 0.00020483788  0.020293789            0 0.00030027278  0.026729881   0.04702367  0.063682172 
 3904000  0.019513909 0.00015230894  0.018505267            0 0.00029897411  0.029265354  0.047770621  0.060157191 
 3912000  0.019010709 0.00096197112  0.018385991            0 0.00030519574  0.028510696  0.046896687   0.12512928 
 3920000  0.019076268 6.0143918e-05  0.017686293            0 0.00029580781  0.028609016  0.046295309  0.051186531 
 3928000  0.018319023 0.00030364134  0.020062085            0 0.00030158174  0.027473361  0.047535446   0.07222917 
 3936000  0.019233237 -0.00037218915  0.023582031 4.364339e-06 0.00029453517  0.028844424  0.052426455   0.02215806 
 3944000  0.018894958 0.00011123144  0.018182172 8.3728082e-05 0.00029871311  0.028337101  0.046519273  0.055565203 
 3952000  0.019009793 0.0004665295  0.020337981            0 0.00030231816  0.028509322  0.048847303  0.086787955 
 3960000  0.017670658 -0.00034970096     0.020051            0 0.00029516584  0.026500997  0.046551997  0.018112461 
 3968000  0.019963797 -0.00057032438   0.02126727 2.7956294e-05 0.00029240402  0.029940058  0.051207328 0.0048255264 
 3976000  0.018269061 0.00065348781  0.018498184 6.005918e-07 0.00030230576  0.027398433  0.045896617  0.099041709 
 3984000  0.017094547 -0.00023807069  0.017802698            0 0.00029554333  0.025636993  0.043439691   0.02407852 
 3992000  0.017418162 -0.00032845488   0.02208905            0 0.00029598378  0.026122325  0.048211375  0.021499682 
 4000000  0.019455663 0.00034453325  0.020482351            0 0.00030101299  0.029178001  0.049660352  0.077679622 
 4008000  0.020396979 -0.00036275909  0.015918914            0 0.00029305098  0.030589709  0.046508623  0.017007131 
 4016000  0.019042826 4.9865772e-05  0.016731614            0 0.00029752042  0.028558862  0.045290476  0.049345825 
 4024000  0.017457838 -0.00018614919  0.018358002            0 0.00029706734  0.026181828   0.04453983  0.029401191 
 4032000  0.021523617 -0.00056654881  0.016219717            0 0.0002901966  0.032279347  0.048499064 0.0024243114 
 4040000  0.023456534 0.00030953689   0.01930806 1.0130609e-05 0.0002996523  0.035178178  0.054486237  0.079659419 
 4048000  0.019121722 1.1297061e-05   0.01918635            0 0.00029809824  0.028677184  0.047863534  0.048782271 
 4056000  0.020815418 -0.00022146678  0.017657563            0 0.00029393831  0.031217249  0.048874812  0.030863959 
 4064000  0.019875924 0.00069826447  0.015365151            0 0.00030193357  0.029808274  0.045173425   0.10195999 
 4072000  0.018491568 0.00015751215  0.019049461 2.8002564e-06 0.00029932771  0.027732131  0.046781592  0.059591314 
 4080000  0.020986793 -0.00026627702  0.017710243            0  0.000293039  0.031474264  0.049184507  0.027529448 
 4088000  0.018145078 7.8455235e-05  0.021312909            0 0.00029931833  0.027212493  0.048525403  0.054905798 
 4096000  0.018645274 -9.9973361e-05  0.017715151            0 0.0002964041  0.027962647  0.045677798  0.037547434 
 4104000   0.01776742 -0.00043520579   0.02210959 1.0704037e-06 0.00029284739  0.026646113  0.048755704  0.013362461 
 4112000  0.018636348 -5.8547512e-05  0.018510001            0 0.00029663577   0.02794926  0.046459261  0.041697867 
 4120000  0.017905187 0.00027671462  0.019849495            0 0.00030142236  0.026852724  0.046702219  0.069206119 
 4128000  0.018960463 0.00017632311  0.018270788            0 0.00029774558   0.02843534  0.046706129  0.061045659 
 4136000  0.019584578 -0.00050500783  0.019325758            0 0.00029192213  0.029371336  0.048697094 0.0076271803 
 4144000  0.018389429 0.00037528576  0.017596529            0 0.00029964258   0.02757895   0.04517548  0.075695707 
 4152000     0.019441 0.00025371306  0.018619259            0 0.0002995527   0.02915601   0.04777527   0.06840856 
 4160000  0.018572967 -0.00033941646  0.019903557            0 0.00029366656  0.027854206  0.047757764  0.020154618 
 4168000  0.017930097 -0.00012988571  0.017450624            0 0.00029477521  0.026890082  0.044340706  0.033777711 
 4176000  0.021147256 0.00045171414  0.021067414            0 0.00030337251  0.031714913  0.052782327  0.089518115 
 4184000  0.018673311 -0.00088196834  0.021994122            0 0.00028900388  0.028004693  0.049998815 -0.021727526 
 4192000  0.018653294 0.00012683469  0.019414314            0 0.00029826244  0.027974674  0.047388988  0.057703857 
 4200000  0.020818783 0.00011189921   0.01629082 0.00018410058 0.00029625108  0.031222295  0.047513115  0.056613352 
 4208000  0.018121774 0.00017482288  0.019509757 1.104686e-05 0.00029892242  0.027177544  0.046687301  0.060904824 
 4216000  0.019431138 -0.00028212229  0.023102073 8.4830742e-05 0.00029644818  0.029141221  0.052243294  0.029299613 
 4224000  0.015448714 -0.00062991362  0.018384462 5.8943537e-05 0.00028966659  0.023168709  0.041553171 -0.0096747444 
 4232000  0.019232569 0.00054497828  0.020730008            0 0.00030341433  0.028843422   0.04957343  0.093893953 
 4240000  0.022377341 0.00010548851  0.020425175            0 0.00029755943  0.033559692  0.053984867  0.062563752 
 4248000  0.019470215 -0.00015179362  0.018693064            0 0.00029607015  0.029199824  0.047892888  0.035548227 
 4256000  0.018659584 0.00023857891  0.021764015            0 0.0003012655  0.027984107  0.049748123  0.069150625 
 4264000  0.020838073 -0.00039486448  0.019342239            0 0.00029335731  0.031251225  0.050593464  0.018480991 
 4272000  0.018371712 -8.4546296e-08    0.0196554            0 0.00029738486  0.027552381  0.047207781  0.047200905 
 4280000  0.019064331 0.00024737623  0.018989524            0 0.00030018942  0.028591112  0.047580636  0.067698583 
 4288000  0.016692586 -0.00047404977  0.019672007 9.9908458e-05 0.00029248131  0.025034165  0.044706171 0.0061539308 
 4296000   0.01958949 -0.00013745347  0.017768612 1.4773478e-05 0.00029454408  0.029378704  0.047147315  0.035968871 
 4304000  0.019987888 0.00013040526  0.019954909            0 0.00029958704  0.029976188  0.049931097  0.060536344 
 4312000    0.0177014 0.00029585906  0.017960731            0 0.00030021621  0.026547102  0.044507833   0.06856866 
 4320000  0.019275042 -0.00063454042  0.018594608            0 0.00029015555   0.02890712  0.047501728 -0.0041024626 
 4328000  0.019579593 -0.00019034006  0.019408782 7.875221e-05 0.00029438119   0.02936386  0.048772642  0.033293179 
 4336000  0.017898004 -0.00051542225   0.02054969            0 0.00029388369  0.026841952  0.047391642 0.0054747731 
 4344000  0.020542639 -0.00033188073  0.019860532            0 0.00029421294  0.030808158   0.05066869  0.023678389 
 4352000   0.01767549 0.00067459115  0.018068588 4.2208114e-06 0.0003044775  0.026508244  0.044576832  0.099438161 
 4360000  0.018758374 0.00024765655  0.021763964            0 0.00030032127  0.028132264  0.049896228  0.070036972 
 4368000  0.016162906 0.00043518524  0.020631546            0 0.00030229542  0.024239795  0.044871341  0.080262912 
 4376000  0.019746013 0.00022495628  0.022743815            0 0.0003011852  0.029613444  0.052357259  0.070651897 
 4384000  0.017626345 0.00042246117  0.019404689            0 0.00030122476  0.026434541   0.04583923  0.080196012 
 4392000  0.019885137 -0.00033346264  0.020439988            0 0.00029481421  0.029822091  0.050262079  0.023143129 
 4400000  0.019607255 0.00041602543  0.022534557 0.00040610547 0.00030175312  0.029405346  0.051939903  0.085773297 
 4408000  0.019100402 0.00022542219  0.016673097            0 0.00029841953   0.02864521  0.045318307  0.063650834 
 4416000   0.01665821 3.6891482e-05  0.019149604            0   0.00029759  0.024982611  0.044132215  0.047132426 
 4424000   0.01937246 -0.00089706031  0.018062943 1.9790247e-05 0.00028863167   0.02905322  0.047116163 -0.025837537 
 4432000  0.018717716 -0.00064742893  0.020058299            0 0.00029116503  0.028071289  0.048129588 -0.0045227645 
 4440000  0.018532806 0.00062508546  0.019721029 5.933809e-07 0.00030364783  0.027793976  0.047515004  0.098350268 
 4448000  0.019861323 0.00028242826   0.02016006 8.9361716e-06 0.00030102006  0.029786377  0.049946437     0.072915 
 4456000  0.019212043 -0.00019647622  0.016785077            0 0.00029509872   0.02881264  0.045597716  0.029619229 
 4464000   0.01915035 0.00027937508  0.021213186 1.7611003e-05 0.00030051188  0.028720118  0.049933303  0.072653566 
 4472000  0.017922252 0.00071494129  0.018306377 2.602505e-06 0.00030350053  0.026878317  0.045184694   0.10332751 
 4480000  0.017749732 0.00035592885  0.022138151            0 0.0003027261  0.026619586  0.048757737  0.077703757 
 4488000  0.018885295 -0.0003081317  0.019423635            0 0.00029442525   0.02832261  0.047746245  0.022687342 
 4496000  0.019334962 0.00021358474  0.017920369 2.5299422e-05 0.00029890222  0.028996983  0.046917353  0.064287196 
 4504000  0.021552527 -0.00012596664  0.017503225            0 0.00029559232  0.032322705   0.04982593  0.039581655 
 4512000  0.020713009 -0.00044135776  0.018501318 0.00011109263 0.00029274257  0.031063664  0.049564982  0.013671429 
 4520000  0.017858045 0.00013277714  0.021844662            0 0.00029936622  0.026782024  0.048626686  0.059424827 
 4528000  0.017995395 0.00027757912  0.017638128            0 0.00029946116  0.026988011  0.044626139  0.067200345 
 4536000  0.019079276 -0.00043434201  0.018952901            0 0.00029271669  0.028613527  0.047566428  0.012243433 
 4544000  0.018539889 -0.00034795139  0.018723843            0 0.00029402303  0.027804598  0.046528441  0.018231189 
 4552000  0.018573942 -0.00062665008  0.021103957            0 0.00029344804  0.027855668  0.048959624 -0.0020028821 
 4560000  0.017697725 0.0007516918  0.018781105            0 0.00030461955   0.02654159  0.045322694   0.10645426 
 4568000  0.020956777 -0.00035860583  0.020117833 1.6679731e-05 0.00029467137  0.031429248  0.051547081  0.022383354 
 4576000  0.018356718 0.00036329132  0.021040692            0 0.00030126811  0.027529893  0.048570585  0.078115361 
 4584000  0.018649698 7.4163938e-05  0.021255647            0 0.00029847242   0.02796928  0.049224927  0.055256332 
 4592000  0.020024436 -0.00028311394  0.021312942 0.00019559231 0.00029506343  0.030030999  0.051343941  0.028319615 
 4600000  0.020103915 -0.00033042761  0.020688056            0 0.00029506364  0.030150195  0.050838251  0.023966126 
 4608000  0.016422905 0.00045112624  0.017956853 3.9524302e-05 0.00030157874  0.024629721  0.042586573   0.07927455 
 4616000  0.022517427 -0.00083310183  0.020436577            0 0.0002898199  0.033769782  0.054206359 -0.013545898 
 4624000  0.020360872 0.00010209551  0.022260576            0 0.00029963024  0.030535558  0.052796134  0.061099082 
 4632000  0.016460234  0.000471826   0.01852921 1.4741426e-06 0.00030232201  0.024685703  0.043214913  0.081586305 
 4640000  0.016331234 -5.911767e-06   0.01848294            0 0.00029786519   0.02449224   0.04297518  0.042494404 
 4648000  0.018846942 -0.00010208692  0.018317847            0 0.00029569463  0.028265092  0.046582939  0.038280689 
 4656000  0.020203631 -0.00037518733  0.015869383 0.00014943043 0.00029139636  0.030299741  0.046169124  0.015656902 
 4664000  0.018806982 -0.00046422143  0.019208071            0 0.00029245335  0.028205162  0.047413233 0.0096602848 
 4672000  0.017690128 5.482487e-05  0.014407484            0 0.00029559365  0.026530196  0.040937681   0.04539633 
 4680000  0.019978441 0.00016576226  0.019100339            0 0.00029940834   0.02996202  0.049062359  0.062543025 
 4688000  0.017133234 -7.2784521e-05  0.018848603 8.1398007e-06 0.00029519739  0.025695012  0.044543615  0.038624392 
 4696000  0.017136041 0.00015513562  0.016930535            0 0.00029780212  0.025699222  0.042629757  0.055246208 
 4704000  0.017264164 -0.00065696226  0.020317942            0 0.00029235538  0.025891371  0.046209314 -0.0072183397 
 4712000  0.017451757 -0.00010092113  0.020732112            0 0.00029650122  0.026172707  0.046904819  0.038697378 
 4720000   0.01668064 -4.080866e-05  0.019243161            0 0.00029711787   0.02501625  0.044259412  0.040940635 
 4728000  0.017059813 -0.0004942644  0.020629197            0 0.0002928574  0.025584903    0.0462141 0.0060178985 
 4736000  0.021000302 -4.4386761e-05   0.01803932            0 0.00029584509  0.031494523  0.049533844  0.045924077 
 4744000  0.018781612 0.00048686913  0.018673547            0 0.00030119365  0.028167114  0.046840661   0.08643544 
 4752000  0.018899112 -0.00081812528  0.022585079            0 0.0002891153  0.028343331   0.05092841 -0.015605875 
 4760000  0.018935672 8.6750973e-05  0.020531018            0 0.00029873156  0.028398161  0.048929179  0.055984228 
 4768000  0.019167486 -8.6036925e-05  0.019123958            0 0.00029671181  0.028745817  0.047869774  0.040872795 
 4776000   0.01973356 -0.00056026722  0.021289256            0 0.00029212128  0.029594768  0.050884024 0.0053201238 
 4784000  0.020027058 -0.00036616913  0.021464071            0 0.00029564398  0.030034932  0.051499004  0.021720188 
 4792000  0.015999993 0.00018115459  0.021263019            0 0.00029936333  0.023995471   0.04525849  0.059990942 
 4800000  0.020843579 0.00058275281  0.022481713            0 0.00030555236  0.031259483  0.053741196   0.10113374 
Loop time of 1774.61 on 1 procs for 4000000 steps with 5312 atoms

Performance: 389494.264 tau/day, 2254.018 timesteps/s
99.9% CPU use with 1 MPI tasks x 1 OpenMP threads

MPI task timing breakdown:
Section |  min time  |  avg time  |  max time  |%varavg| %total
---------------------------------------------------------------
Pair    | 359.5      | 359.5      | 359.5      |   0.0 | 20.26
Bond    | 65.947     | 65.947     | 65.947     |   0.0 |  3.72
Neigh   | 926.72     | 926.72     | 926.72     |   0.0 | 52.22
Comm    | 64.791     | 64.791     | 64.791     |   0.0 |  3.65
Output  | 0.063137   | 0.063137   | 0.063137   |   0.0 |  0.00
Modify  | 240.05     | 240.05     | 240.05     |   0.0 | 13.53
Other   |            | 117.5      |            |       |  6.62

Nlocal:    5312 ave 5312 max 5312 min
Histogram: 1 0 0 0 0 0 0 0 0 0
Nghost:    1040 ave 1040 max 1040 min
Histogram: 1 0 0 0 0 0 0 0 0 0
Neighs:    490 ave 490 max 490 min
Histogram: 1 0 0 0 0 0 0 0 0 0

Total # of neighbors = 490
Ave neighs/atom = 0.092244
Ave special neighs/atom = 0.0741717
Neighbor list builds = 140270
Dangerous builds = 0
Setting up Verlet run ...
  Unit style    : lj
  Current step  : 4800000
  Time step     : 0.002
Per MPI rank memory allocation (min/avg/max) = 8.85 | 8.85 | 8.85 Mbytes
Step Temp Press PotEng E_vdwl E_coul KinEng TotEng Enthalpy 
 4800000  0.020843579 0.00058275281  0.022481713            0 0.00030555236  0.031259483  0.053741196   0.10113374 
 4808000  0.017249019 -0.00052073073  0.020892796            0 0.00029268575  0.025868658  0.046761455 0.0044128713 
 4816000  0.018585404 -0.00026003752  0.020207782            0 0.00029458859  0.027872858  0.048080641  0.026933011 
 4824000   0.02022798 0.00028982592  0.017783749            0 0.00029839679  0.030336258  0.048120007  0.071690187 
 4832000  0.019762113  0.000815352  0.019604247 1.5215146e-05 0.0003054902   0.02963759  0.049241837   0.11555058 
 4840000   0.02006778 -0.00025477274  0.018697229            0 0.00029529678  0.030096003  0.048793232  0.028073763 
 4848000  0.018551269 0.00073782969  0.019012692            0 0.00030444823  0.027821665  0.046834357   0.10683858 
 4856000   0.02168322 8.6787009e-05  0.021411413            0 0.00029862714  0.032518708  0.053930121  0.060988101 
 4864000  0.019384338 0.00019143906  0.019421563            0 0.00029964647  0.029071034  0.048492596  0.064061435 
 4872000  0.020991437 0.00036487251   0.01993575            0 0.00030163958  0.031481229  0.051416978  0.081090345 
 4880000  0.021436751 -0.00018460139  0.019754785            0 0.00029423852  0.032149073  0.051903858  0.036891094 
 4888000  0.018017216 0.00052194498  0.017466109 0.00019708798 0.00030058061  0.027020737  0.044486846  0.086934178 
 4896000   0.01746175  0.000190092  0.018148497 5.3477826e-05 0.00030013629  0.026187694  0.044336191   0.05979548 
 4904000  0.016272502 -3.6347368e-05  0.021501702            0 0.00029871675  0.024404159  0.045905861    0.0429499 
 4912000  0.020197991 -0.0006440588   0.01962448            0 0.00029129617  0.030291283  0.049915762 -0.0024625135 
 4920000  0.018635273 9.5237902e-06  0.015383972            0 0.00029612688  0.027947647   0.04333162  0.044106145 
 4928000     0.018596 -0.00025171955  0.021373038            0 0.00029608102   0.02788875  0.049261788  0.028790619 
 4936000   0.01916608 -0.00075143369  0.020330084 0.00020719141 0.00029008404  0.028743707  0.049073791  -0.01203678 
 4944000  0.016336686 0.00058160562  0.018760932 6.1588962e-05 0.00030404487  0.024500415  0.043261347  0.090560599 
 4952000  0.019707071 0.00021166807  0.016737613            0 0.00029748671  0.029555042  0.046292655  0.063506624 
 4960000  0.016481499 1.3419613e-05  0.021379207            0 0.00029875374  0.024717595  0.046096802  0.047188156 
 4968000  0.018225578 -0.00046483923   0.02299411            0 0.00029338437  0.027333221   0.05032733  0.012524139 
 4976000  0.019012804 1.345963e-05   0.01783292            0 0.0002969955  0.028513837  0.046346757  0.047441366 
 4984000  0.021340803  0.000425543  0.018353279            0 0.00030097588  0.032005178  0.050358457  0.084965869 
 4992000  0.015622735 -0.0006496982  0.018517997            0 0.0002910597  0.023429691  0.041947689 -0.010889214 
 5000000  0.019241537 9.0641941e-06  0.018769275            0 0.0002980561  0.028856872  0.047626147  0.048363296 
 5008000  0.018066755 0.00023546182  0.018650194            0 0.0002986553  0.027095031  0.045745225  0.064894229 
 5016000  0.019677524 -0.00019621931  0.015428996 2.8850207e-05 0.00029336044   0.02951073  0.044939725  0.028982131 
 5024000  0.020079494 0.00024035306  0.020010439            0 0.00030082561  0.030113571  0.050124009  0.069670795 
 5032000  0.019573048 0.00030959626  0.021792342            0 0.00030132313  0.029354045  0.051146388  0.076324397 
 5040000  0.020585705 0.00058651828  0.021788269 5.1787292e-05 0.00030431647  0.030872745  0.052661014   0.10035979 
 5048000  0.019985065 -0.00034114987   0.01594273            0 0.00029174914  0.029971954  0.045914684  0.018170567 
 5056000  0.015827752 -7.5989071e-05  0.021852126            0 0.0002985466  0.023737159  0.045589285  0.039409451 
 5064000  0.016501017 -5.1143675e-05  0.016071775            0 0.00029645427  0.024746866  0.040818641  0.036659366 
 5072000  0.017968956 0.00041248755  0.020097137 0.00015866761 0.00030154741   0.02694836  0.047045496   0.08059117 
 5080000  0.021920458 0.00039808523  0.018092418            0 0.00030110976  0.032874497  0.050966915  0.083341316 
 5088000  0.018216046 0.00010389978  0.022951649            0 0.00030075076  0.027318926  0.050270575  0.058720256 
 5096000  0.021094488 0.00034741266  0.017455953            0 0.00030035296  0.031635776  0.049091729  0.077345169 
 5104000    0.0192585 0.00031538496  0.017514589            0 0.00029974382  0.028882312    0.0463969  0.072045678 
 5112000  0.020378328 -4.3088134e-06  0.019256898 0.00012368504 0.00029783819  0.030561738  0.049818636  0.049468221 
 5120000  0.018775019 -0.00057470545  0.022272837 0.00011670393 0.00029378441  0.028157227  0.050430064 0.0036919699 
 5128000  0.018925063 0.00081038439  0.020428712 6.382196e-05 0.00030567172  0.028382251  0.048810963   0.11471572 
 5136000  0.019798877 6.3336508e-05  0.019328918 5.1555667e-05 0.00029757944  0.029692725  0.049021643  0.054172503 
 5144000  0.020867286 -0.00019558177  0.016130093 5.8321957e-05 0.00029294462  0.031295037   0.04742513  0.031519383 
 5152000  0.019620072 -0.00029653938  0.020965759 0.00019962099 0.00029469149  0.029424567  0.050390326  0.026274172 
[...]
43520000  0.018680752 0.0005199761  0.021650628 0.00047209709 0.00034539242  0.028015853  0.049666481  0.091953694 
43528000  0.016467193 0.0001589281  0.020479521 0.00098386623 0.00034709353   0.02469614   0.04517566  0.058100536 
43536000  0.018064148 -0.0011159483  0.022187669 0.00041254382 0.00030468221  0.027091121   0.04927879 -0.041476045 
43544000  0.017756369 -0.00064988718  0.024107109 0.00064519885 0.00031120037   0.02662954  0.050736649 -0.0021156224 
43552000  0.017351803 0.00037449188  0.019171384 0.00031030357 0.00031132985  0.026022805  0.045194189  0.075649854 
43560000  0.018707573 0.0001604069  0.026465008 0.00013161378 0.00030775604  0.028056077  0.054521085  0.067566225 
43568000  0.019377102 2.4849131e-05  0.020912147 0.00059865282 0.00033716819  0.029060181  0.049972328  0.051993191 
43576000  0.015976845 0.00013882516  0.024148237 0.00049535444 0.00030489551  0.023960757  0.048108994  0.059398992 
43584000  0.018680334 0.00052086392  0.020443953 0.00039900707 0.00033840328  0.028015226  0.048459179  0.090818594 
43592000  0.018684693 -1.4045154e-05  0.018101351 0.00026252381 0.00030236716  0.028021763  0.046123114  0.044980887 
43600000  0.015605441 0.00026108601  0.022208612 0.00022206896 0.00034058461  0.023403754  0.045612367  0.066845265 
43608000  0.018589374 -0.0002944253  0.018975605 6.9188265e-05 0.00032147043  0.027878812  0.046854418  0.022910192 
43616000  0.017989925 -0.00023763411   0.02210817 1.0114469e-05 0.00032545597  0.026979808  0.049087978  0.029762312 
43624000  0.018996767 0.00015301015  0.021962239 0.00026632662 0.00031548082  0.028489786  0.050452025  0.062895622 
43632000   0.01666767 -0.00076321244  0.021346977 5.9631483e-05 0.00030676608  0.024996798  0.046343774 -0.015724707 
43640000  0.017862892 0.0006975276  0.022841817 2.342732e-05 0.00031464561  0.026789293   0.04963111   0.10635775 
43648000  0.019614611 6.5992118e-06  0.020051309 0.00022617226 0.00032315315  0.029416378  0.049467687   0.05000437 
43656000  0.017259055 8.8727632e-05   0.02120515 0.00034059271 0.00031612119  0.025883709   0.04708886  0.054304661 
43664000  0.016275931 0.00058117611   0.02191013 0.00066417379 0.00030406058    0.0244093  0.046319429  0.093583752 
43672000  0.019275544 0.00048934856  0.021110387 0.00012049602 0.0003215459  0.028907873  0.050018259  0.089814678 
43680000  0.017774365 0.00010722948  0.018946911 0.00072933336 0.00031764535  0.026656529   0.04560344   0.05432391 
43688000  0.019651596 0.00058189886  0.018664948 0.00011310352 0.00032489151  0.029471845  0.048136793  0.095459893 
43696000  0.018394526 0.00070415819  0.021535335 0.00047509258 0.00031500281  0.027586594   0.04912193   0.10638781 
43704000  0.017721014 0.00016864908  0.019858571 0.00082798719 0.00031675247  0.026576517  0.046435088  0.060150525 
43712000  0.017800653 0.0001214174  0.023704647 0.00022515107 0.00031139581  0.026695952  0.050400599  0.060274905 
43720000  0.018612081 0.00025026426  0.023511323 0.0001641513 0.00031094144  0.027912866  0.051424189  0.071777005 
43728000  0.019607034 -0.00016369533  0.022925546 0.00072253057 0.00030607747  0.029405014   0.05233056  0.039017988 
43736000  0.021356958 0.00012716657  0.020627363 0.00020313837 0.00031104712  0.032029406  0.052656768  0.062998628 
43744000  0.017404191 -0.00026457254  0.018615446 0.00012731071 0.00032045115  0.026101371  0.044716818  0.023200376 
43752000  0.019530666 0.00034224742  0.020400116 0.00011443388 0.00030832264  0.029290484    0.0496906  0.077523974 
43760000  0.018712115 0.00014344182  0.019920664 0.00021931677 0.00032605958  0.028062888  0.047983552  0.059649001 
43768000   0.01925674 0.00029782465  0.019802729 0.00039948266 0.00031912646  0.028879673  0.048682402  0.072903082 
43776000  0.020869778 0.0005629983  0.023586289 0.00023728831 0.00031885399  0.031298774  0.054885063   0.10067107 
43784000  0.020542708 -0.00013797382  0.021317236 9.8023947e-05 0.00030338957  0.030808261  0.052125497  0.040904735 
43792000  0.017965064 7.7599909e-05  0.018979909 0.00020903582 0.00032486843  0.026942523  0.045922431  0.052233267 
43800000  0.019050731 3.810546e-05  0.022143551 0.00074776741 0.00033924126  0.028570717  0.050714267  0.053813205 
43808000  0.022320212 6.1057354e-05  0.021559768 0.00013208881 0.00033186106  0.033474015  0.055033783  0.059999291 
43816000  0.018660523 -0.00037747226  0.021753986 6.850077e-05 0.00029976476  0.027985516  0.049739501  0.019041456 
43824000  0.022546032 0.00018490563  0.018895751 2.8301565e-05 0.00031298978  0.033812681  0.052708432  0.067745938 
43832000  0.019869368 0.00036574977  0.019760122 0.00055585559 0.00030387338  0.029798441  0.049558563  0.079303273 
43840000  0.019158825 0.00019954703  0.025123298 0.00011462779 0.00031893647  0.028732828  0.053856126  0.070084348 
43848000  0.016970657 -0.00011701282   0.01995398 0.00034601536 0.00030635944  0.025451194  0.045405174  0.035889071 
43856000  0.019347794 5.0714917e-05  0.015412938 0.00029912376 0.00033045258  0.029016228  0.044429166  0.048553572 
43864000   0.01827013 0.00063554803  0.018096295 0.00074547759 0.00032427568  0.027400036  0.045496331  0.097182466 
43872000   0.01853965 0.00072456221  0.022567312 0.00012639734 0.00031970319   0.02780424  0.050371553   0.10929679 
43880000  0.020184802 9.3335086e-05  0.018642775 0.00020528975 0.00033458501  0.030271504  0.048914279  0.056504783 
43888000   0.01980086 0.00068078015  0.019531979 0.00094756015 0.00031160534  0.029695699  0.049227679   0.10459233 
43896000  0.018846075 0.00039251266  0.019634937 0.0005759557 0.00030937613  0.028263791  0.047898728  0.079819939 
43904000  0.019760548 0.00045104682  0.021760841 7.7065535e-05 0.00030968461  0.029635242  0.051396083  0.088077602 
43912000  0.017787767 0.00017142045   0.02063439 0.00021535827 0.00035838573  0.026676628  0.047311018  0.061251838 
43920000  0.019113455 0.00018377759  0.022191291 0.0010682596 0.00032200384  0.028664785  0.050856076  0.065801844 
43928000  0.018686272 -8.9000765e-05   0.01653247 0.00024177457 0.00032841525  0.028024132  0.044556601  0.037318587 
43936000  0.020920847 -5.6141776e-05  0.016658887 6.5469036e-06 0.00030034102  0.031375363   0.04803425  0.043468503 
43944000  0.018217369 -0.00042089719  0.022307896 0.00029419303 0.00031363375  0.027320909  0.049628805  0.015399214 
43952000  0.017324099 -0.00015497512  0.019807962 0.00019789178 0.00031136108  0.025981257  0.045789219  0.033185821 
43960000  0.022098442 0.00037166698  0.022187414 0.00057585624 0.00032553062  0.033141423  0.055328837  0.085554766 
43968000  0.018986949 0.00031148676   0.02014163 4.4563609e-05 0.00031737363  0.028475062  0.048616693  0.073948447 
43976000  0.020721835 0.00040249756  0.019225263 0.00059770424 0.00031086084  0.031076902  0.050302165  0.083035401 
43984000  0.017174331 0.00013660687  0.022653146 0.00092524191 0.00031053209  0.025756647  0.048409793  0.059519388 
43992000  0.019833813 0.00011331493  0.018760649 0.00088443522 0.00032229774   0.02974512  0.048505768  0.057721139 
44000000  0.020363022 0.00028146465  0.021070887 3.9905197e-05 0.00031560093  0.030538782   0.05160967  0.074499867 
44008000  0.020215333 -0.00017102109  0.019410464 0.00016690043 0.00032422634  0.030317292  0.049727755  0.035819414 
44016000  0.018037785 0.0001159877  0.022244542 0.00024745261 0.00030933562  0.027051584  0.049296127  0.058728861 
44024000  0.020217892 0.00064089649  0.017977508 1.1758278e-05 0.00031234467  0.030321129  0.048298637   0.10041974 
44032000  0.018923716 0.00034664905  0.018763043 0.00065319568 0.0003225895   0.02838023  0.047143273  0.075334611 
44040000  0.019477303 0.00048333778  0.017751675 0.00029505519 0.00031737686  0.029210455   0.04696213  0.086269721 
44048000  0.018131412 0.00048380835  0.022751733 0.0004174752 0.00031273904  0.027191998  0.049943732  0.089289591 
44056000  0.018483636 -0.00034094475  0.019874837 0.00075778862 0.00031900723  0.027720234  0.047595072  0.019867637 
44064000  0.021054336 0.00035516575  0.021314124 0.00044709691 0.00031493036  0.031575558  0.052889683  0.081773644 
44072000  0.018110031 -0.00053800012  0.025730206 3.8789981e-05 0.00030033236  0.027159933  0.052890139 0.0091371171 
44080000  0.018399972 0.00014589854  0.019809744 0.0007325274 0.0003089672  0.027594762  0.047404505  0.059269749 
44088000  0.017982516 0.00040541878  0.023990509 0.00018376345 0.00032954548  0.026968697  0.050959205  0.083930009 
44096000  0.019876796 3.935952e-05  0.016754848 8.0900969e-05 0.00031806129  0.029809581  0.046564429  0.049765354 
44104000  0.018862346 -1.6946349e-05  0.020560027 0.00037041961 0.00031309138  0.028288192   0.04884822  0.047470053 
44112000  0.020696789 1.8708495e-05  0.024886084 0.0010035783 0.00032497217   0.03103934  0.055925424  0.057446898 
44120000  0.018245711 0.00055784453  0.024139278 0.00024589558 0.00032332585  0.027363415  0.051502693  0.096869568 
44128000  0.018768144 -0.00010497039  0.019971419 0.00012052832 0.00030608901  0.028146916  0.048118336  0.039581587 
44136000   0.01635284 0.00026315803  0.021684686 0.00011521299 0.00033177055  0.024524642  0.046209328  0.067610734 
44144000  0.017633894 0.00049855441  0.015651815 0.00062653753 0.00031954209  0.026445862  0.042097677  0.082642764 
44152000  0.021853159 0.00062974028  0.020223542 0.0003538847 0.0003147403  0.032773567  0.052997109   0.10421093 
44160000  0.017558405 0.00065356565  0.018743673 0.00036418235 0.00030690641  0.026332649  0.045076322  0.098227745 
44168000  0.019571828 0.00052777731  0.015809408 0.00046916328 0.00031610055  0.029352216  0.045161624  0.088083273 
44176000  0.017726721 7.8475104e-05  0.022921688 0.00031203172 0.0003167781  0.026585075  0.049506764  0.055888775 
44184000  0.018307011 0.00023071122  0.019318074 0.00054366478 0.00032451757  0.027455347  0.046773422  0.065536081 
44192000   0.01632176 -5.4745222e-05  0.020763046 0.00066839541 0.00032131438  0.024478031  0.045241077  0.040788906 
44200000  0.016777231 -0.00027292696  0.022044834 0.00042347014 0.00032752219  0.025161109  0.047205943  0.025010076 
44208000  0.016977819 0.0003236172  0.020390428 3.7216611e-05 0.00032434895  0.025461934  0.045852362  0.072170629 
44216000  0.019899031 0.00030630483  0.023352043 0.00025744593 0.00031336823  0.029842927   0.05319497  0.078105302 
44224000  0.017414736 0.00020597339  0.020535501 9.2804248e-05 0.00032025735  0.026117187  0.046652688  0.063403536 
44232000  0.020720468 0.00095134027  0.019603264 0.00050940329 0.00032912007  0.031074851  0.050678115   0.12804615 
44240000  0.016944948 2.7735605e-05  0.021768771 0.00014541779 0.00033900302  0.025412637  0.047181407  0.049437014 
44248000  0.018721932 0.00091128521  0.019881878 0.00049094148 0.00034061178  0.028077612   0.04795949   0.12207003 
44256000  0.018277295 0.00018596367  0.020070622 0.00035029316 0.00030955906  0.027410781  0.047481403  0.062604955 
44264000  0.018124773 -0.00014809139  0.019132946 0.00043871985 0.00030810374  0.027182041  0.046314987  0.034271409 
44272000  0.016534703 0.00029604876  0.018594431 0.00023336829 0.00033257539  0.024797385  0.043391816  0.067468071 
44280000  0.019096691 0.00033319863  0.021181203 0.00047277065 0.00030583268  0.028639645  0.049820847  0.076918326 
44288000  0.020625949 0.00047833084   0.02145014  0.001292353 0.00034158583  0.030933099  0.052383239  0.091283638 
44296000  0.021818652 0.00024696561  0.020047824 6.8060559e-05 0.00031568112  0.032721817  0.052769641  0.072854194 
44304000  0.021000751 4.6747708e-06  0.022819326 0.00010739668 0.0003100351  0.031495197  0.054314523    0.0546947 
44312000  0.019165428 -0.00050817007  0.023316635 0.00035577114 0.00031119914   0.02874273  0.052059366  0.010732282 
44320000  0.019348957 0.00010027764  0.018807089 0.00063055552 0.00031044088  0.029017971   0.04782506   0.05598017 
44328000  0.018974226 3.9501197e-05  0.020195524 8.1757752e-05 0.0003143215  0.028455982  0.048651505  0.051863952 
44336000   0.02213891 -0.00051471293  0.020863998 0.00074462618 0.00030766083  0.033202113  0.054066111  0.012206927 
44344000  0.017613702 -0.00021276791   0.02247986 0.00020474759 0.00031301946  0.026415579  0.048895439  0.031592025 
44352000  0.017306237 0.00010952148  0.020028115 0.00024992187 0.00031509495  0.025954469  0.045982584  0.054889451 
44360000  0.021061189 0.00088813989  0.021694416 0.00010924848 0.00032291312  0.031585837  0.053280253    0.1255085 
44368000  0.019519197 0.0006805331  0.019337701 0.00018394334 0.00032594666  0.029273283  0.048610984   0.10395554 
44376000  0.019218753 -0.00043445664  0.017760488   0.00043215 0.00032133199  0.028822702   0.04658319  0.011250873 
44384000  0.018735745 -0.00053276798  0.020921966 0.00028554032 0.00030471466  0.028098326  0.049020292 0.0056927755 
44392000  0.020869868 0.00048879167   0.02138639 9.443094e-05 0.00032323641  0.031298908  0.052685299  0.092436429 
44400000  0.018151481 -5.5385429e-05  0.025055413 0.00029858274 0.00032508875  0.027222096  0.052277509  0.047773272 
44408000  0.021573984 -8.1801419e-05  0.020392905 0.00031867546 0.00030791527  0.032354884  0.052747789  0.046095264 
44416000  0.018616169 0.00045250068  0.019619019 0.00064094186 0.00034086515  0.027918997  0.047538016   0.08433777 
44424000  0.020720667 8.6505238e-05  0.021570342 0.00046214322 0.00030730226   0.03107515  0.052645491  0.059680556 
44432000  0.018345694 0.00064125877  0.019140513 0.00037571314 0.00033533631   0.02751336  0.046653873  0.098804435 
44440000   0.01937464 -0.0004381741  0.020117692 0.00031585309 0.00032753745   0.02905649  0.049174181  0.013539541 
44448000  0.019793611 0.00016815871  0.021911165 0.00045488738 0.00031176675  0.029684828  0.051595992   0.06527155 
44456000  0.020516029 0.00012177411  0.018995288 0.00019446818 0.00032256477   0.03076825  0.049763537  0.059666854 
44464000    0.0214849 0.00015448115  0.021074706 0.0001429404 0.00033435829  0.032221283  0.053295988  0.065859214 
44472000  0.020475874 -5.8087825e-06  0.019135385 0.00040923883 0.00031123252  0.030708029  0.049843414  0.049371013 
44480000  0.017722129 7.6480133e-05  0.020717695 0.00028106458 0.00030293627  0.026578189  0.047295884  0.053515654 
44488000  0.017881022 0.0001964633  0.019655109 0.00024763304 0.00032025161  0.026816483  0.046471592  0.062449029 
44496000  0.016645947 -1.5261253e-05  0.020974887 0.00053258915 0.00030880597   0.02496422  0.045939107  0.044697981 
44504000  0.018556375 0.00025368596  0.017844248 0.00018445527 0.00032165159  0.027829322   0.04567357  0.066304658 
44512000  0.017249098 -7.9800843e-05  0.022345369 4.5444101e-06 0.00031600986  0.025868776  0.048214146  0.041724318 
44520000  0.020921775 0.00044508863  0.022251854 0.00055363271 0.00032782555  0.031376755  0.053628609  0.089825576 
44528000  0.019288999 0.00028487171   0.02070658 0.0014429744 0.00034233216  0.028928052  0.049634632   0.07280191 
44536000  0.019869766 0.00038271048  0.020449278 0.00040680067 0.00032802684  0.029799039  0.050248317  0.081372362 
44544000  0.020059438 -0.00027774636  0.025091418 0.00015653118 0.00030973164  0.030083492   0.05517491  0.032587103 
44552000  0.018472209 0.00012360213  0.019982022 0.00029044237 0.00032628625  0.027703097   0.04768512    0.0577371 
44560000  0.022022918 0.00052004399  0.020532248 0.00020741281 0.00032461859  0.033028158  0.053560406   0.09585314 
44568000  0.018198137 -0.00077937398  0.021416468 0.00017715069 0.00030960983  0.027292066  0.048708534 -0.014674289 
44576000  0.019413195 0.00020638044   0.02007077 0.00081806176 0.00031013177   0.02911431   0.04918508  0.065969031 
44584000   0.01892371 0.00046835096  0.018022786 0.00020519338 0.00032439426  0.028380222  0.046403008  0.084491791 
44592000  0.017017015 1.3707684e-05  0.019225406 0.0004038281 0.00032711378  0.025520718  0.044746124  0.045860905 
44600000  0.019010947 0.00040982805  0.020980431 0.00072640868 0.00031384543  0.028511052  0.049491484  0.082820873 
44608000  0.016055156 -0.00058488312  0.021068454 0.00069855131 0.00030636627  0.024078201  0.045146655 -0.0024191414 
44616000  0.020413996 0.00049533421   0.01905177 0.00025721381 0.00031115996   0.03061523  0.049666999  0.089950203 
44624000  0.018897515 0.00063585978  0.018725406 0.00012480519  0.000321231  0.028340936  0.047066342   0.09877783 
44632000  0.019339612 3.3635964e-05  0.021947979 0.00016086066 0.00031046631  0.029003957  0.050951937  0.053687391 
44640000  0.019508178 0.00052566489  0.020071327 0.00073206942 0.00030848632  0.029256759  0.049328085  0.092077941 
44648000  0.017514403 0.00076676356   0.02438027 0.00035641745 0.0003183608  0.026266659  0.050646929   0.11300421 
44656000   0.02306918 0.00013379905  0.022021924 0.00028516396 0.00033009042  0.034597255  0.056619179  0.067500427 
44664000  0.017634038 -0.00070261798  0.023223332 0.00059511882 0.00032522338  0.026446078   0.04966941 -0.0074712091 
44672000  0.016834277 0.00017479042  0.020353177 0.0013718661 0.00032048815  0.025246662  0.045599839  0.059814722 
44680000   0.01563834 0.00066676413  0.023522585 0.0013528184 0.00030972172  0.023453094  0.046975678   0.10120047 
44688000  0.017613716 0.00029459977  0.021418486 0.00026641634 0.00031626589  0.026415601  0.047834087  0.071792502 
44696000    0.0195171 6.181272e-05  0.019433132 0.00035246583 0.00030323167  0.029270139  0.048703271  0.053730209 
44704000  0.018409988 0.0003714778  0.018955136 0.00027186014 0.00032059498  0.027609783  0.046564919  0.076775463 
44712000  0.017393391 0.00010044786  0.019166393 0.0005478039 0.00031079505  0.026085176  0.045251568  0.053420521 
44720000  0.017368334 0.00057788276  0.021981198 0.00033841557 0.00031640108  0.026047596  0.048028795  0.095025284 
44728000  0.019116515 0.00015904546  0.019905649 0.00020705092 0.00032061303  0.028669375  0.048575023  0.061509443 
44736000  0.017387638 0.00020540956  0.023367338 0.0011271635 0.00033583355  0.026076547  0.049443885   0.06614888 
44744000  0.018985303 -4.476312e-05  0.014811258 0.00038936759 0.0003188033  0.028472593  0.043283852  0.039643478 
44752000  0.018000789 -7.5841399e-05  0.023156255 0.00056502737 0.00032002662    0.0269961  0.050152355  0.043984531 
44760000  0.015637115 0.0003920041  0.021260536 0.00048731793 0.00031343157  0.023451257  0.044711792  0.076591644 
44768000  0.016824798 -0.00037529558  0.021609225 1.7963738e-06 0.00030783931  0.025232446  0.046841671  0.016320644 
44776000  0.017814092 -0.00036710672  0.018290006 8.5571261e-05 0.00029699876  0.026716108  0.045006114  0.015151049 
44784000  0.019066891 0.00031343171  0.017354516 1.0799454e-05 0.00030472923  0.028594952  0.045949468  0.071439397 
44792000  0.018452956 -0.00066281438  0.017590462 4.8472852e-08 0.00029572174  0.027674223  0.045264685 -0.0086388937 
44800000  0.017694682 0.00038747873  0.021403018 0.00086444135 0.00032142429  0.026537026  0.047940044  0.079451868 
Loop time of 909.859 on 1 procs for 1600000 steps with 5312 atoms

Performance: 303871.282 tau/day, 1758.514 timesteps/s
99.9% CPU use with 1 MPI tasks x 1 OpenMP threads

MPI task timing breakdown:
Section |  min time  |  avg time  |  max time  |%varavg| %total
---------------------------------------------------------------
Pair    | 231.45     | 231.45     | 231.45     |   0.0 | 25.44
Bond    | 27.079     | 27.079     | 27.079     |   0.0 |  2.98
Neigh   | 401.98     | 401.98     | 401.98     |   0.0 | 44.18
Comm    | 25.943     | 25.943     | 25.943     |   0.0 |  2.85
Output  | 0.087805   | 0.087805   | 0.087805   |   0.0 |  0.01
Modify  | 175.9      | 175.9      | 175.9      |   0.0 | 19.33
Other   |            | 47.42      |            |       |  5.21

Nlocal:    5312 ave 5312 max 5312 min
Histogram: 1 0 0 0 0 0 0 0 0 0
Nghost:    1040 ave 1040 max 1040 min
Histogram: 1 0 0 0 0 0 0 0 0 0
Neighs:    1352 ave 1352 max 1352 min
Histogram: 1 0 0 0 0 0 0 0 0 0

Total # of neighbors = 1352
Ave neighs/atom = 0.254518
Ave special neighs/atom = 0.0741717
Neighbor list builds = 56391
Dangerous builds = 0
Total wall time: 6:55:27
